  python dir          : /gpfs/pace1/project/chbe-medford/medford-share/INSTALL/lib/python2.7/site-packages/espresso
  espresso dir        : /gpfs/pace1/project/chbe-medford/medford-share/builds/espresso/5.1.r11289-pybeef/intel-16.0+mvapich2-2.2+mkl-11.3/espresso-5.1.r11289-pybeef/bin
  pseudo dir          : /gpfs/pace1/project/chbe-medford/medford-share/data/pseudos/SSSP_eff_PBE
  ase-espresso py git : c91b4c2-git



     Program PWSCF v.5.1rc2 starts on 10Apr2017 at 23:42:15 

     This program is part of the open-source Quantum ESPRESSO suite
     for quantum simulation of materials; please cite
         "P. Giannozzi et al., J. Phys.:Condens. Matter 21 395502 (2009);
          URL http://www.quantum-espresso.org", 
     in publications or presentations arising from this work. More details at
     http://www.quantum-espresso.org/quote

     Parallel version (MPI), running on     1 processors
     Reading input from pw.inp
     Message from routine read_cards :
     DEPRECATED: no units specified in CELL_PARAMETERS card

     Current dimensions of program PWSCF are:
     Max number of different atomic species (ntypx) = 10
     Max number of k-points (npk) =  40000
     Max angular momentum in pseudopotentials (lmaxx) =  3

     **************************************************************************
     Initializing libbeef V0.1.2 with the BEEF-vdW functional.
     Citation: Wellendorff et al., PRB 85, 235149 (2012).
     **************************************************************************


     IMPORTANT: XC functional enforced from input :
     Exchange-correlation      = BEEF-VDW ( 1  4 27 13 2)
     Any further DFT definition will be discarded
     Please, verify this is what you really want


     Subspace diagonalization in iterative solution of the eigenvalue problem:
     a serial algorithm will be used

 
     G-vector sticks info
     --------------------
     sticks:   dense  smooth     PW     G-vecs:    dense   smooth      PW
     Sum         583     241     85                66933    16981    3435
 
     Generating pointlists ...
     new r_m :   0.4125 (alat units)  0.7795 (a.u.) for type    1


     bravais-lattice index     =            0
     lattice parameter (alat)  =       1.8897  a.u.
     unit-cell volume          =     785.8726 (a.u.)^3
     number of atoms/cell      =            3
     number of atomic types    =            1
     number of electrons       =        48.00
     number of Kohn-Sham states=           34
     kinetic-energy cutoff     =      29.3995  Ry
     charge density cutoff     =     293.9946  Ry
     convergence threshold     =      7.3E-08
     mixing beta               =       0.7000
     number of iterations used =            8  plain     mixing
     Exchange-correlation      = BEEF-VDW ( 1  4 27 13 2)
     nstep                     =           50


     celldm(1)=   1.889726  celldm(2)=   0.000000  celldm(3)=   0.000000
     celldm(4)=   0.000000  celldm(5)=   0.000000  celldm(6)=   0.000000

     crystal axes: (cart. coord. in units of alat)
               a(1) = (   2.842569   0.000000   0.000000 )  
               a(2) = (   1.421285   2.461737   0.000000 )  
               a(3) = (   0.000000   0.000000  16.641896 )  

     reciprocal axes: (cart. coord. in units 2 pi/alat)
               b(1) = (  0.351794 -0.203109  0.000000 )  
               b(2) = (  0.000000  0.406217  0.000000 )  
               b(3) = (  0.000000  0.000000  0.060089 )  


     PseudoPot. # 1 for Pt read from file:
     /gpfs/pace1/project/chbe-medford/medford-share/data/pseudos/SSSP_eff_PBE/Pt.UPF
     MD5 check sum: f09d6de1a584b5a045c4fc126da2d0c4
     Pseudo is Ultrasoft + core correction, Zval = 16.0
     Generated by new atomic code, or converted to UPF format
     Using radial grid of  985 points,  6 beta functions with: 
                l(1) =   0
                l(2) =   0
                l(3) =   1
                l(4) =   1
                l(5) =   2
                l(6) =   2
     Q(r) pseudized with  8 coefficients,  rinner =    1.300   1.300   1.300
                                                       1.300   1.300

     vdW kernel table read from file vdW_kernel_table
     MD5 check sum: 88c60d17101ec99b63477f765c8de84d

     atomic species   valence    mass     pseudopotential
        Pt1           16.00   195.08000     Pt( 1.00)

     Starting magnetic structure 
     atomic species   magnetization
        Pt1          0.000

     12 Sym. Ops., with inversion, found ( 6 have fractional translation)



   Cartesian axes

     site n.     atom                  positions (alat units)
         1           Pt1 tau(   1) = (   1.4212846   0.8205791   6.0000000  )
         2           Pt1 tau(   2) = (   2.8425693   1.6411581   8.3209481  )
         3           Pt1 tau(   3) = (   0.0000000   0.0000000  10.6418962  )

     number of k points=    20  Fermi-Dirac smearing, width (Ry)=  0.0073
                       cart. coord. in units 2pi/alat
        k(    1) = (   0.0000000   0.0000000   0.0000000), wk =   0.0156250
        k(    2) = (   0.0000000   0.0507772   0.0000000), wk =   0.0937500
        k(    3) = (   0.0000000   0.1015543   0.0000000), wk =   0.0937500
        k(    4) = (   0.0000000   0.1523315   0.0000000), wk =   0.0937500
        k(    5) = (   0.0000000  -0.2031086   0.0000000), wk =   0.0468750
        k(    6) = (   0.0439743   0.0761657   0.0000000), wk =   0.0937500
        k(    7) = (   0.0439743   0.1269429   0.0000000), wk =   0.1875000
        k(    8) = (   0.0439743  -0.2284972   0.0000000), wk =   0.1875000
        k(    9) = (   0.0879486  -0.2538858   0.0000000), wk =   0.0937500
        k(   10) = (   0.0879486  -0.2031086   0.0000000), wk =   0.0937500
        k(   11) = (   0.0000000   0.0000000   0.0000000), wk =   0.0156250
        k(   12) = (   0.0000000   0.0507772   0.0000000), wk =   0.0937500
        k(   13) = (   0.0000000   0.1015543   0.0000000), wk =   0.0937500
        k(   14) = (   0.0000000   0.1523315   0.0000000), wk =   0.0937500
        k(   15) = (   0.0000000  -0.2031086   0.0000000), wk =   0.0468750
        k(   16) = (   0.0439743   0.0761657   0.0000000), wk =   0.0937500
        k(   17) = (   0.0439743   0.1269429   0.0000000), wk =   0.1875000
        k(   18) = (   0.0439743  -0.2284972   0.0000000), wk =   0.1875000
        k(   19) = (   0.0879486  -0.2538858   0.0000000), wk =   0.0937500
        k(   20) = (   0.0879486  -0.2031086   0.0000000), wk =   0.0937500

     Dense  grid:    66933 G-vectors     FFT dimensions: (  30,  30, 180)

     Smooth grid:    16981 G-vectors     FFT dimensions: (  20,  20, 120)

     Largest allocated arrays     est. size (Mb)     dimensions
        Kohn-Sham Wavefunctions         1.11 Mb     (    2140,   34)
        NL pseudopotentials             1.76 Mb     (    2140,   54)
        Each V/rho on FFT grid          4.94 Mb     (  162000,   2)
        Each G-vector array             0.51 Mb     (   66933)
        G-vector shells                 0.03 Mb     (    3339)
     Largest temporary arrays     est. size (Mb)     dimensions
        Auxiliary wavefunctions         4.44 Mb     (    2140,  136)
        Each subspace H/S matrix        0.28 Mb     (     136,  136)
        Each <psi_i|beta_j> matrix      0.03 Mb     (      54,   34)
        Arrays for rho mixing          19.78 Mb     (  162000,    8)

     Initial potential from superposition of free atoms
     Check: negative starting charge=(component1):   -0.282958
     Check: negative starting charge=(component2):   -0.282958

     starting charge   46.49997, renormalised to   48.00000

     negative rho (up, down):  2.921E-01 2.921E-01


     ************************************************************************
     *
     * You are using vdW-DF for exchange-correlation in this calculation.
     * Please cite the following three references that made this development
     * possible:
     *
     *   M. Dion, H. Rydberg, E. Schroder, D. C. Langreth, and
     *   B. I. Lundqvist, Phys. Rev. Lett. 92, 246401 (2004).
     *
     *   T. Thonhauser, V. R. Cooper, S. Li, A. Puzder, P. Hyldgaard, and
     *   D. C. Langreth, Phys. Rev. B 76, 125112 (2007).
     *
     *   G. Roman-Perez and J. M. Soler, Phys. Rev. Lett. 103, 096102 (2009).
     *
     *
     * If you are using vdW-DF2, please also cite:
     *
     *   K. Lee, E. D. Murray, L. Kong, B. I. Lundqvist, and
     *   D. C. Langreth, Phys. Rev. B 82, 081101(R) (2010).
     *
     *
     * If you are calculating the stress with vdW-DF, please also cite:
     *
     *   R. Sabatini, E. Kucukbenli, B. Kolb, T. Thonhauser, and
     *   S. de Gironcoli, J. Phys.: Condens. Matter 24, 424209 (2012).
     *
     ************************************************************************

     Carrying out vdW-DF run using the following parameters:

     Nqs =      20    Nr_points =    1024   r_max =   100.000
     q_mesh =
               0.00001000     0.04494208     0.09755937     0.15916263
               0.23128650     0.31572767     0.41458969     0.53033537
               0.66584808     0.82450364     1.01025438     1.22772762
               1.48234092     1.78043706     2.12944203     2.53805004
               3.01644009     3.57652955     4.23227104     5.00000000

     Gradients computed in reciprocal space

     ************************************************************************


     Starting wfc are   36 randomized atomic wfcs

     total cpu time spent up to now is        7.1 secs

     per-process dynamical memory:    74.0 Mb

     Self-consistent Calculation

     iteration #  1     ecut=    29.40 Ry     beta=0.70
     Davidson diagonalization with overlap
     ethr =  1.00E-02,  avg # of iterations =  5.6

     negative rho (up, down):  2.628E-01 2.628E-01
 
     Magnetic moment per site:
     atom:    1    charge:    1.9971    magn:   -0.0001    constr:    0.0000
     atom:    2    charge:    1.9688    magn:   -0.0001    constr:    0.0000
     atom:    3    charge:    1.9971    magn:   -0.0001    constr:    0.0000

     total cpu time spent up to now is       21.6 secs

     total energy              =    -634.40340215 Ry
     Harris-Foulkes estimate   =    -637.84181007 Ry
     estimated scf accuracy    <       4.43178296 Ry

     total magnetization       =    -0.00 Bohr mag/cell
     absolute magnetization    =     0.01 Bohr mag/cell

     iteration #  2     ecut=    29.40 Ry     beta=0.70
     Davidson diagonalization with overlap
     ethr =  9.23E-03,  avg # of iterations =  4.6

     negative rho (up, down):  2.665E-01 2.665E-01
 
     Magnetic moment per site:
     atom:    1    charge:    2.0067    magn:   -0.0001    constr:    0.0000
     atom:    2    charge:    2.0669    magn:   -0.0001    constr:    0.0000
     atom:    3    charge:    2.0067    magn:   -0.0001    constr:    0.0000

     total cpu time spent up to now is       36.6 secs

     total energy              =    -633.76231478 Ry
     Harris-Foulkes estimate   =    -641.43793840 Ry
     estimated scf accuracy    <      23.16291728 Ry

     total magnetization       =    -0.00 Bohr mag/cell
     absolute magnetization    =     0.00 Bohr mag/cell

     iteration #  3     ecut=    29.40 Ry     beta=0.70
     Davidson diagonalization with overlap
     ethr =  9.23E-03,  avg # of iterations =  3.8

     negative rho (up, down):  2.710E-01 2.710E-01
 
     Magnetic moment per site:
     atom:    1    charge:    2.0825    magn:   -0.0001    constr:    0.0000
     atom:    2    charge:    2.0600    magn:   -0.0001    constr:    0.0000
     atom:    3    charge:    2.0825    magn:   -0.0001    constr:    0.0000

     total cpu time spent up to now is       50.5 secs

     total energy              =    -635.85243470 Ry
     Harris-Foulkes estimate   =    -638.37395920 Ry
     estimated scf accuracy    <      10.08678108 Ry

     total magnetization       =     0.00 Bohr mag/cell
     absolute magnetization    =     0.00 Bohr mag/cell

     iteration #  4     ecut=    29.40 Ry     beta=0.70
     Davidson diagonalization with overlap
     ethr =  9.23E-03,  avg # of iterations =  2.4

     negative rho (up, down):  2.724E-01 2.724E-01
 
     Magnetic moment per site:
     atom:    1    charge:    2.0842    magn:   -0.0001    constr:    0.0000
     atom:    2    charge:    2.0854    magn:   -0.0000    constr:    0.0000
     atom:    3    charge:    2.0842    magn:   -0.0001    constr:    0.0000

     total cpu time spent up to now is       62.1 secs

     total energy              =    -636.97940400 Ry
     Harris-Foulkes estimate   =    -637.27754524 Ry
     estimated scf accuracy    <       1.91622298 Ry

     total magnetization       =    -0.00 Bohr mag/cell
     absolute magnetization    =     0.00 Bohr mag/cell

     iteration #  5     ecut=    29.40 Ry     beta=0.70
     Davidson diagonalization with overlap
     ethr =  3.99E-03,  avg # of iterations =  1.4

     negative rho (up, down):  2.729E-01 2.729E-01
 
     Magnetic moment per site:
     atom:    1    charge:    2.0852    magn:   -0.0001    constr:    0.0000
     atom:    2    charge:    2.0837    magn:   -0.0000    constr:    0.0000
     atom:    3    charge:    2.0852    magn:   -0.0001    constr:    0.0000

     total cpu time spent up to now is       73.3 secs

     total energy              =    -636.97739640 Ry
     Harris-Foulkes estimate   =    -637.04599688 Ry
     estimated scf accuracy    <       0.37607111 Ry

     total magnetization       =    -0.00 Bohr mag/cell
     absolute magnetization    =     0.00 Bohr mag/cell

     iteration #  6     ecut=    29.40 Ry     beta=0.70
     Davidson diagonalization with overlap
     ethr =  7.83E-04,  avg # of iterations =  4.4

     negative rho (up, down):  2.727E-01 2.727E-01
 
     Magnetic moment per site:
     atom:    1    charge:    2.0848    magn:   -0.0000    constr:    0.0000
     atom:    2    charge:    2.0835    magn:   -0.0000    constr:    0.0000
     atom:    3    charge:    2.0848    magn:   -0.0000    constr:    0.0000

     total cpu time spent up to now is       85.9 secs

     total energy              =    -636.99682386 Ry
     Harris-Foulkes estimate   =    -637.00828876 Ry
     estimated scf accuracy    <       0.03288091 Ry

     total magnetization       =    -0.00 Bohr mag/cell
     absolute magnetization    =     0.00 Bohr mag/cell

     iteration #  7     ecut=    29.40 Ry     beta=0.70
     Davidson diagonalization with overlap
     ethr =  6.85E-05,  avg # of iterations =  3.3

     negative rho (up, down):  2.729E-01 2.729E-01
 
     Magnetic moment per site:
     atom:    1    charge:    2.0856    magn:   -0.0000    constr:    0.0000
     atom:    2    charge:    2.0835    magn:   -0.0000    constr:    0.0000
     atom:    3    charge:    2.0856    magn:   -0.0000    constr:    0.0000

     total cpu time spent up to now is       97.9 secs

     total energy              =    -636.99370648 Ry
     Harris-Foulkes estimate   =    -637.01738923 Ry
     estimated scf accuracy    <       0.21520293 Ry

     total magnetization       =    -0.00 Bohr mag/cell
     absolute magnetization    =     0.00 Bohr mag/cell

     iteration #  8     ecut=    29.40 Ry     beta=0.70
     Davidson diagonalization with overlap
     ethr =  6.85E-05,  avg # of iterations =  3.6

     negative rho (up, down):  2.730E-01 2.730E-01
 
     Magnetic moment per site:
     atom:    1    charge:    2.0857    magn:   -0.0000    constr:    0.0000
     atom:    2    charge:    2.0839    magn:   -0.0000    constr:    0.0000
     atom:    3    charge:    2.0857    magn:   -0.0000    constr:    0.0000

     total cpu time spent up to now is      109.9 secs

     total energy              =    -637.00313214 Ry
     Harris-Foulkes estimate   =    -637.00368396 Ry
     estimated scf accuracy    <       0.00147949 Ry

     total magnetization       =    -0.00 Bohr mag/cell
     absolute magnetization    =     0.00 Bohr mag/cell

     iteration #  9     ecut=    29.40 Ry     beta=0.70
     Davidson diagonalization with overlap
     ethr =  3.08E-06,  avg # of iterations =  4.0

     negative rho (up, down):  2.730E-01 2.730E-01
 
     Magnetic moment per site:
     atom:    1    charge:    2.0859    magn:   -0.0000    constr:    0.0000
     atom:    2    charge:    2.0840    magn:   -0.0000    constr:    0.0000
     atom:    3    charge:    2.0859    magn:   -0.0000    constr:    0.0000

     total cpu time spent up to now is      122.9 secs

     total energy              =    -637.00339613 Ry
     Harris-Foulkes estimate   =    -637.00347340 Ry
     estimated scf accuracy    <       0.00046455 Ry

     total magnetization       =    -0.00 Bohr mag/cell
     absolute magnetization    =     0.00 Bohr mag/cell

     iteration # 10     ecut=    29.40 Ry     beta=0.70
     Davidson diagonalization with overlap
     ethr =  9.68E-07,  avg # of iterations =  2.8

     negative rho (up, down):  2.731E-01 2.731E-01
 
     Magnetic moment per site:
     atom:    1    charge:    2.0859    magn:   -0.0000    constr:    0.0000
     atom:    2    charge:    2.0839    magn:   -0.0000    constr:    0.0000
     atom:    3    charge:    2.0859    magn:   -0.0000    constr:    0.0000

     total cpu time spent up to now is      134.5 secs

     total energy              =    -637.00343258 Ry
     Harris-Foulkes estimate   =    -637.00343366 Ry
     estimated scf accuracy    <       0.00000603 Ry

     total magnetization       =    -0.00 Bohr mag/cell
     absolute magnetization    =     0.00 Bohr mag/cell

     iteration # 11     ecut=    29.40 Ry     beta=0.70
     Davidson diagonalization with overlap
     ethr =  1.26E-08,  avg # of iterations =  2.0

     negative rho (up, down):  2.731E-01 2.731E-01
 
     Magnetic moment per site:
     atom:    1    charge:    2.0859    magn:   -0.0000    constr:    0.0000
     atom:    2    charge:    2.0840    magn:   -0.0000    constr:    0.0000
     atom:    3    charge:    2.0859    magn:   -0.0000    constr:    0.0000

     total cpu time spent up to now is      146.4 secs

     total energy              =    -637.00343300 Ry
     Harris-Foulkes estimate   =    -637.00343417 Ry
     estimated scf accuracy    <       0.00001166 Ry

     total magnetization       =    -0.00 Bohr mag/cell
     absolute magnetization    =     0.00 Bohr mag/cell

     iteration # 12     ecut=    29.40 Ry     beta=0.70
     Davidson diagonalization with overlap
     ethr =  1.26E-08,  avg # of iterations =  1.0

     negative rho (up, down):  2.731E-01 2.731E-01

     negative rho (up, down):  2.731E-01 2.731E-01

     negative rho (up, down):  2.731E-01 2.731E-01

     negative rho (up, down):  2.731E-01 2.731E-01

     negative rho (up, down):  2.731E-01 2.731E-01

     negative rho (up, down):  2.731E-01 2.731E-01

     negative rho (up, down):  2.731E-01 2.731E-01

     negative rho (up, down):  2.731E-01 2.731E-01

     negative rho (up, down):  2.731E-01 2.731E-01

     negative rho (up, down):  2.731E-01 2.731E-01

     negative rho (up, down):  2.731E-01 2.731E-01

     negative rho (up, down):  2.731E-01 2.731E-01

     negative rho (up, down):  2.731E-01 2.731E-01

     negative rho (up, down):  2.731E-01 2.731E-01

     negative rho (up, down):  2.731E-01 2.731E-01

     negative rho (up, down):  2.731E-01 2.731E-01

     negative rho (up, down):  2.731E-01 2.731E-01

     negative rho (up, down):  2.731E-01 2.731E-01

     negative rho (up, down):  2.731E-01 2.731E-01

     negative rho (up, down):  2.731E-01 2.731E-01

     negative rho (up, down):  2.731E-01 2.731E-01

     negative rho (up, down):  2.731E-01 2.731E-01

     negative rho (up, down):  2.731E-01 2.731E-01

     negative rho (up, down):  2.731E-01 2.731E-01

     negative rho (up, down):  2.731E-01 2.731E-01

     negative rho (up, down):  2.731E-01 2.731E-01

     negative rho (up, down):  2.731E-01 2.731E-01

     negative rho (up, down):  2.731E-01 2.731E-01

     negative rho (up, down):  2.731E-01 2.731E-01

     negative rho (up, down):  2.731E-01 2.731E-01

     negative rho (up, down):  2.731E-01 2.731E-01

     negative rho (up, down):  2.731E-01 2.731E-01

     negative rho (up, down):  2.731E-01 2.731E-01

     negative rho (up, down):  2.731E-01 2.731E-01

     negative rho (up, down):  2.731E-01 2.731E-01
 
     Magnetic moment per site:
     atom:    1    charge:    2.0859    magn:   -0.0000    constr:    0.0000
     atom:    2    charge:    2.0840    magn:   -0.0000    constr:    0.0000
     atom:    3    charge:    2.0859    magn:   -0.0000    constr:    0.0000

     total cpu time spent up to now is      213.6 secs

     End of self-consistent calculation

 ------ SPIN UP ------------


          k = 0.0000 0.0000 0.0000 (  2131 PWs)   bands (ev):

   -47.7220 -47.5494 -47.5494 -47.2819 -47.2819 -47.2804 -47.2804 -47.1317
   -47.1048  -3.3164  -1.6798  -1.1949   1.7679   1.8665   1.8665   2.1157
     2.1157   2.1597   2.3082   2.3082   3.6699   3.6699   4.2508   4.2508
     4.3947   4.8919   4.8919   6.0158   9.7738  10.6778  11.9652  15.0007
    15.1422  19.2886

          k = 0.0000 0.0508 0.0000 (  2140 PWs)   bands (ev):

   -47.7155 -47.5901 -47.5595 -47.3203 -47.3192 -47.2917 -47.2901 -47.1254
   -47.1033  -2.8165  -1.1831  -0.7349   1.4680   1.6319   1.7722   2.1966
     2.2110   2.3104   2.3664   2.6665   3.2478   3.5414   3.6039   4.1410
     4.2410   4.9083   5.4790   7.4633  10.1169  11.1388  12.2493  15.2752
    15.5135  19.6806

          k = 0.0000 0.1016 0.0000 (  2120 PWs)   bands (ev):

   -47.7019 -47.6860 -47.5836 -47.4142 -47.4064 -47.3152 -47.3129 -47.1114
   -47.0994  -1.6196  -0.3427   0.0517   0.7975   1.2768   1.8353   2.1268
     2.4491   2.5717   2.6248   3.1242   3.3479   3.6252   3.7769   4.2142
     4.4060   4.9348   6.6328   9.4855  11.1225  12.4692  13.1503  15.9929
    16.5239  17.3570

          k = 0.0000 0.1523 0.0000 (  2114 PWs)   bands (ev):

   -47.7800 -47.6942 -47.6076 -47.5068 -47.4863 -47.3385 -47.3357 -47.1011
   -47.0935  -0.8608  -0.4625  -0.0664   0.1813   1.3725   1.7774   2.3795
     2.4708   3.3277   3.6638   4.0432   4.4895   4.5720   4.7236   4.8513
     5.0405   5.2565   8.0016  11.3280  12.5207  12.8495  13.7625  14.5151
    14.9652  16.3225

          k = 0.0000-0.2031 0.0000 (  2128 PWs)   bands (ev):

   -47.8187 -47.6949 -47.6175 -47.5451 -47.5154 -47.3482 -47.3451 -47.0987
   -47.0894  -0.8113  -0.6220  -0.1776  -0.0745   1.2692   1.6154   2.2755
     2.8657   3.6627   3.8368   4.7554   4.8039   5.1197   5.3664   5.4266
     6.3763   7.8473   7.9243  10.5759  10.8218  11.8289  14.5230  15.2400
    15.4032  15.5058

          k = 0.0440 0.0762 0.0000 (  2127 PWs)   bands (ev):

   -47.7054 -47.6537 -47.5812 -47.3827 -47.3770 -47.3120 -47.3110 -47.1152
   -47.1007  -1.9292  -0.3863   0.0123   1.0132   1.2912   1.4865   2.0062
     2.0093   2.5876   2.8450   2.9721   3.3049   3.4710   3.7173   3.9728
     4.5930   4.7317   6.3623   8.9711  10.7896  12.0541  12.8367  15.8343
    16.2301  19.4052

          k = 0.0440 0.1269 0.0000 (  2122 PWs)   bands (ev):

   -47.7387 -47.6943 -47.6154 -47.4664 -47.4519 -47.3446 -47.3432 -47.1026
   -47.0966  -0.7701  -0.0333   0.2965   0.7669   1.1856   1.6239   2.0304
     2.2269   2.3644   2.7935   3.4023   3.6010   4.1670   4.6345   4.8250
     5.0688   5.3576   7.6384  10.9140  12.1421  13.6858  14.0652  14.8073
    16.0831  16.9915

          k = 0.0440-0.2285 0.0000 (  2104 PWs)   bands (ev):

   -47.7978 -47.6908 -47.6394 -47.5241 -47.5003 -47.3674 -47.3663 -47.0970
   -47.0904  -0.4520  -0.2910   0.0285   0.3817   1.2568   1.8077   1.9345
     2.6395   3.2378   3.5559   3.7882   4.3659   4.5126   4.8026   5.1546
     6.8921   7.6570   9.5234  10.6864  11.6023  12.9431  14.2600  14.3718
    15.8967  15.9783

          k = 0.0879-0.2539 0.0000 (  2089 PWs)   bands (ev):

   -47.7687 -47.6871 -47.6692 -47.4960 -47.4774 -47.3967 -47.3925 -47.0937
   -47.0935   0.0579   0.1226   0.6057   0.9502   1.2507   1.4244   2.1456
     2.2577   2.4687   2.4903   3.3997   3.5839   4.2035   4.7908   5.1815
     7.0257   7.8596   9.7944  12.2904  12.7743  12.8827  14.0419  14.3498
    15.2385  16.0115

          k = 0.0879-0.2031 0.0000 (  2090 PWs)   bands (ev):

   -47.7716 -47.7012 -47.6837 -47.4978 -47.4821 -47.4276 -47.4210 -47.0924
   -47.0899   0.1711   0.2657   0.6059   0.8357   1.3210   1.5883   2.0777
     2.3591   2.7036   2.8291   3.3086   3.8214   4.5539   4.5837   4.8986
     9.3545   9.4172  10.6105  10.6259  12.1612  12.4440  13.6778  14.7097
    16.1387  16.1486

 ------ SPIN DOWN ----------


          k = 0.0000 0.0000 0.0000 (  2131 PWs)   bands (ev):

   -47.7222 -47.5496 -47.5496 -47.2820 -47.2820 -47.2806 -47.2806 -47.1319
   -47.1050  -3.3164  -1.6798  -1.1950   1.7677   1.8663   1.8663   2.1155
     2.1155   2.1596   2.3080   2.3080   3.6697   3.6697   4.2506   4.2506
     4.3946   4.8917   4.8917   6.0158   9.7738  10.6778  11.9652  15.0006
    15.1422  19.2886

          k = 0.0000 0.0508 0.0000 (  2140 PWs)   bands (ev):

   -47.7157 -47.5903 -47.5598 -47.3204 -47.3193 -47.2919 -47.2903 -47.1255
   -47.1034  -2.8165  -1.1831  -0.7350   1.4679   1.6317   1.7720   2.1965
     2.2108   2.3102   2.3662   2.6663   3.2477   3.5412   3.6037   4.1408
     4.2408   4.9081   5.4788   7.4632  10.1168  11.1388  12.2493  15.2752
    15.5135  19.6806

          k = 0.0000 0.1016 0.0000 (  2120 PWs)   bands (ev):

   -47.7021 -47.6862 -47.5838 -47.4144 -47.4065 -47.3153 -47.3130 -47.1116
   -47.0996  -1.6196  -0.3428   0.0516   0.7974   1.2766   1.8352   2.1267
     2.4490   2.5715   2.6247   3.1241   3.3478   3.6250   3.7767   4.2140
     4.4058   4.9346   6.6327   9.4855  11.1225  12.4691  13.1503  15.9929
    16.5239  17.3570

          k = 0.0000 0.1523 0.0000 (  2114 PWs)   bands (ev):

   -47.7802 -47.6944 -47.6078 -47.5070 -47.4864 -47.3387 -47.3359 -47.1013
   -47.0937  -0.8609  -0.4626  -0.0665   0.1812   1.3723   1.7772   2.3794
     2.4707   3.3276   3.6636   4.0431   4.4893   4.5719   4.7234   4.8511
     5.0403   5.2564   8.0015  11.3280  12.5206  12.8495  13.7625  14.5150
    14.9652  16.3224

          k = 0.0000-0.2031 0.0000 (  2128 PWs)   bands (ev):

   -47.8189 -47.6951 -47.6178 -47.5453 -47.5156 -47.3483 -47.3453 -47.0989
   -47.0896  -0.8114  -0.6221  -0.1778  -0.0746   1.2691   1.6152   2.2753
     2.8656   3.6625   3.8366   4.7552   4.8037   5.1195   5.3662   5.4264
     6.3763   7.8473   7.9243  10.5757  10.8217  11.8288  14.5230  15.2399
    15.4032  15.5058

          k = 0.0440 0.0762 0.0000 (  2127 PWs)   bands (ev):

   -47.7056 -47.6539 -47.5814 -47.3829 -47.3772 -47.3121 -47.3111 -47.1154
   -47.1008  -1.9292  -0.3863   0.0122   1.0131   1.2910   1.4864   2.0061
     2.0092   2.5874   2.8448   2.9719   3.3048   3.4709   3.7172   3.9727
     4.5928   4.7315   6.3621   8.9710  10.7896  12.0541  12.8367  15.8343
    16.2301  19.4052

          k = 0.0440 0.1269 0.0000 (  2122 PWs)   bands (ev):

   -47.7389 -47.6945 -47.6156 -47.4666 -47.4521 -47.3447 -47.3433 -47.1028
   -47.0968  -0.7702  -0.0334   0.2964   0.7668   1.1855   1.6238   2.0302
     2.2268   2.3643   2.7934   3.4021   3.6008   4.1668   4.6343   4.8248
     5.0687   5.3575   7.6383  10.9140  12.1421  13.6858  14.0652  14.8073
    16.0831  16.9915

          k = 0.0440-0.2285 0.0000 (  2104 PWs)   bands (ev):

   -47.7980 -47.6910 -47.6396 -47.5243 -47.5005 -47.3676 -47.3665 -47.0972
   -47.0906  -0.4521  -0.2911   0.0284   0.3816   1.2567   1.8076   1.9343
     2.6394   3.2377   3.5557   3.7881   4.3657   4.5124   4.8024   5.1544
     6.8920   7.6569   9.5234  10.6863  11.6023  12.9430  14.2600  14.3718
    15.8967  15.9783

          k = 0.0879-0.2539 0.0000 (  2089 PWs)   bands (ev):

   -47.7689 -47.6873 -47.6694 -47.4962 -47.4775 -47.3969 -47.3927 -47.0938
   -47.0936   0.0578   0.1224   0.6056   0.9501   1.2506   1.4243   2.1455
     2.2576   2.4686   2.4902   3.3995   3.5838   4.2033   4.7906   5.1813
     7.0255   7.8595   9.7943  12.2904  12.7743  12.8826  14.0419  14.3497
    15.2385  16.0115

          k = 0.0879-0.2031 0.0000 (  2090 PWs)   bands (ev):

   -47.7718 -47.7014 -47.6839 -47.4980 -47.4823 -47.4277 -47.4212 -47.0926
   -47.0900   0.1710   0.2656   0.6058   0.8356   1.3209   1.5881   2.0776
     2.3590   2.7035   2.8290   3.3085   3.8213   4.5537   4.5835   4.8983
     9.3544   9.4171  10.6105  10.6258  12.1611  12.4440  13.6778  14.7096
    16.1387  16.1486

     the Fermi energy is     4.9482 ev

!    total energy              =    -637.00343359 Ry
     Harris-Foulkes estimate   =    -637.00343360 Ry
     estimated scf accuracy    <       0.00000002 Ry

     The total energy is the sum of the following terms:

     one-electron contribution =   -2245.62413423 Ry
     hartree contribution      =    1137.90010935 Ry
     xc contribution           =    -175.73007688 Ry
     ewald contribution        =     646.46560382 Ry
     smearing contrib. (-TS)   =      -0.01493565 Ry

     total magnetization       =    -0.00 Bohr mag/cell
     absolute magnetization    =     0.00 Bohr mag/cell

     convergence has been achieved in  12 iterations
 
 BEEFens 2000 ensemble energies
             -0.115657018008557E+02
             -0.922824486976957E+00
             -0.329908318987383E+01
              0.882167859452175E+01
             -0.411900598251989E+01
             -0.419359875061541E+01
             -0.708167344409337E+01
             -0.176980161548039E+02
             -0.957555759978345E+01
             -0.100262989755374E+02
             -0.736496291232477E+01
             -0.657965124558215E-01
              0.583404231818388E+00
              0.152233605587691E+01
              0.702866245051183E+00
              0.927219044848866E+01
             -0.471272095782694E+01
             -0.512250709456316E+01
              0.338604493364920E+01
             -0.220846380148922E+02
              0.111422574082271E+02
             -0.546216058931194E+01
             -0.105345280993233E+01
             -0.230521430890803E+01
             -0.197925515826037E+01
             -0.190506957879043E+01
              0.175211195869476E+02
             -0.242546110903460E+01
             -0.232520183290302E+01
             -0.102454900374559E+02
              0.168571070482528E+02
             -0.420959421684828E+01
             -0.795737059522710E+01
              0.555145682724634E+01
             -0.582027567755702E+00
              0.309864499122314E+01
             -0.868335654623614E+00
              0.200911275540597E+01
              0.451644102648367E+01
             -0.212826698558660E+02
              0.106390850913758E+02
              0.233707830947963E+01
              0.239295405583576E+00
             -0.757300850629727E+01
              0.210697393897901E+01
             -0.242040746136398E+01
              0.840617722221731E+01
              0.744436211900128E+01
             -0.620115072142934E+01
             -0.585742475984691E+01
             -0.590861281232742E+01
             -0.631382462263521E+01
              0.133105175790956E+01
             -0.104271828522645E+02
              0.224970390957438E+01
              0.118572885591437E+02
              0.125185561145259E+02
              0.681153028520962E+01
              0.368490849284185E+01
              0.478788761067187E+01
              0.169991027788124E+02
              0.524944530657595E+01
             -0.111715249354774E+02
             -0.303408591648113E+01
             -0.463445655006444E+01
              0.129503000514946E+02
             -0.160878778775200E+02
             -0.125691391959702E+02
             -0.426039508370319E+01
             -0.925143261083576E-01
             -0.101610075932317E+02
              0.505462680890485E+01
              0.178022221468349E+01
              0.211243691716788E+01
             -0.719215622932960E+01
             -0.706362621501094E+01
             -0.104400927546590E+02
              0.837846171729606E+01
             -0.573622685587923E+01
              0.420134375290901E+01
             -0.500187759671291E+00
             -0.659953387559037E+01
             -0.126155211211033E+02
             -0.386032666851222E+01
             -0.252731724353453E+01
             -0.374036417418539E+01
              0.755684043201143E+01
              0.127221987212925E+02
             -0.781006330386031E+01
             -0.165627832079780E+02
             -0.418457796061103E+01
              0.227602413572844E+02
             -0.107646969328851E+02
              0.680297997634160E+01
             -0.200647773578766E+01
             -0.133406643125790E+02
              0.519997422978568E+01
              0.809142832953609E+01
             -0.338473354644381E+01
              0.735048873485948E+01
             -0.610677896777412E+01
             -0.926269335407808E+01
              0.168773990384441E+02
              0.942016079119719E+01
              0.681047819688500E+01
              0.310591055333253E+01
              0.361015720772426E+01
              0.168608900924887E+02
             -0.468925911533950E+01
              0.103547970852131E+01
             -0.284232599750867E+02
              0.431413762812908E+01
             -0.141776093495885E+02
              0.270155354752683E+01
              0.399585292756399E+01
             -0.644050560694814E+01
             -0.110427505166466E+02
              0.189697569978688E+01
             -0.558359573218350E+01
              0.655307996981742E+01
             -0.996639859794383E+01
              0.360225828056045E+00
             -0.716282901183573E+01
             -0.109955655566220E+01
             -0.872919963837326E+00
              0.245504323897512E+01
              0.137689524930437E+00
             -0.152852684505181E+01
              0.111539749481842E+02
              0.178994199359465E+02
              0.926785830381823E+01
              0.168201706157366E+02
             -0.243426197419349E+01
              0.343804897783212E+01
              0.109104218338664E+02
             -0.267413989790413E+01
             -0.144651321769843E+02
             -0.691658735679718E+01
             -0.966881158248793E+01
             -0.570053381775928E+01
              0.560086172535355E+01
             -0.233750890700842E+02
             -0.339641133146986E+01
              0.842513322454445E+01
             -0.766831558473741E+01
             -0.742276525781551E+01
              0.966069889963381E+01
              0.852752740057961E+01
             -0.636765327502545E+01
              0.197494125927201E+01
             -0.472725176811872E+01
              0.710558643715580E+01
              0.157596243946969E+01
              0.418026653743441E+01
             -0.172683143229095E+02
             -0.979970203760495E+01
             -0.151067133497267E+01
              0.115287298922518E+01
             -0.736836578488104E+01
              0.206586328361376E+02
             -0.463209549771420E+01
             -0.691792990137517E+01
              0.841829149369579E+01
             -0.101061804028562E+02
             -0.646311315658253E+01
              0.601226026946631E+01
              0.207661993841629E+01
              0.224377634635864E+01
              0.165854236081223E+01
             -0.241198124594166E+01
              0.424501787739959E+01
              0.118757734764595E+02
             -0.669069322772595E+01
              0.344820613222554E+01
              0.179350838931359E+02
              0.635320997829587E+01
             -0.156997883280795E+01
             -0.348580175567594E+01
              0.301381016462221E+02
             -0.297754892047367E+01
              0.671456647866611E+01
              0.381708743892436E+01
              0.779379059978825E+01
              0.182418694105212E+02
              0.106237665398935E+02
             -0.117056752910197E+01
              0.420263034465334E+01
              0.939391689738605E+01
              0.805591651835822E+01
             -0.104684769516089E+02
              0.181476898711711E+02
             -0.161085645818029E+02
             -0.442088331529639E+01
              0.119539658659342E+02
              0.427097295706181E+00
              0.140068283968347E+01
              0.724385597439733E+01
              0.513125557903228E+01
              0.721229866501507E+01
             -0.129190779953688E+02
              0.952285582826804E+00
             -0.544203770225172E+01
             -0.263521946714033E+01
             -0.151730512571277E+00
             -0.115944139802943E+01
             -0.810534514421633E+00
              0.163629247630522E+02
             -0.177422356925240E+01
             -0.590318159127859E+01
             -0.783608247179433E+00
              0.254160341816169E+01
             -0.116300054904688E+02
             -0.737580591819511E+01
             -0.742913526115674E+01
             -0.124744590144925E+02
             -0.369868416944914E+01
             -0.858195587246171E+01
              0.381340252943414E+01
             -0.667740270785897E+00
             -0.186893422572832E+01
             -0.191166477517857E+01
              0.149946565126326E+01
             -0.537288632556558E+01
              0.128262334299793E+02
             -0.153906410714349E+02
             -0.287338042349848E+01
             -0.373796079485241E+01
              0.345279952123229E+01
              0.305942320121163E+01
             -0.948856135699219E+01
             -0.419471086991696E+01
              0.844921834820559E+01
             -0.523832665130867E+01
              0.305311473472679E+01
              0.774418840679001E+01
             -0.609610511811525E+00
              0.231841319579314E+02
             -0.534015090356766E+01
             -0.703381534931835E+01
              0.157004613770708E+01
             -0.428570019818645E+01
              0.106026604042932E+02
             -0.613392808495687E+01
              0.155415837095345E+01
              0.133247388530914E+02
             -0.270081252121679E+01
              0.237003452597574E+02
              0.251109701814037E+02
             -0.129329940134441E+02
              0.112457368254983E+02
              0.278583715530681E+01
             -0.100876748869524E+02
              0.443114522943312E+01
              0.604171883852488E+01
              0.699245965488134E+01
              0.746595624551134E+00
              0.180532391478405E+01
              0.130841117932107E+02
             -0.462160787112226E+01
              0.303246201915721E+01
              0.152875771362149E+02
             -0.760699728537550E+01
             -0.216487124612086E+01
              0.960999424778394E+01
              0.564255731781683E+01
              0.159627969577858E+02
              0.412334690981328E+01
              0.723381006863491E+00
              0.552613461229384E+01
              0.738566289414438E+01
             -0.804020204790445E+01
              0.152227239194076E+00
              0.168047340317846E+01
              0.233482890928136E+01
              0.390950409438744E+01
             -0.108068453087587E+02
              0.749174663033133E+01
             -0.915639424251445E+01
             -0.606576866041601E+01
              0.245879471271189E+01
             -0.349536246893516E+01
              0.105025311069575E+02
             -0.604129053549386E+01
              0.528288666502660E+01
              0.696826891512433E+01
              0.163523106456790E+02
              0.110475054259803E+02
              0.898823811234944E+01
             -0.317868899001854E+01
             -0.803908523068444E+00
             -0.596559131155993E+01
              0.144622789782803E+02
              0.159482157477525E+02
              0.713949999723786E+01
             -0.386542955518277E+01
              0.102132907770388E+02
             -0.304895772583005E+01
              0.482986949095971E+01
              0.119104016195994E+02
              0.499764224621643E+00
             -0.200683312889393E+01
             -0.602560040589321E+01
             -0.921499521164532E+01
              0.188287919648109E+02
              0.764655839564871E+01
             -0.108678268275315E+02
             -0.253237522026976E+01
              0.556102731266857E+01
             -0.222789985028292E+01
              0.120760308903740E+02
              0.322270564306771E+01
              0.159979508206952E+02
              0.459887900381169E+01
             -0.652513655922726E+01
              0.575591925876961E+01
             -0.923422386382597E+00
             -0.707137536332471E+01
              0.315309240719549E+01
              0.463664302365692E+01
              0.170637885108075E+02
              0.157292175542998E+02
              0.102219199388117E+02
              0.147806321933164E+02
              0.886998079583858E+00
             -0.534293257679221E+01
              0.316188788026530E+01
             -0.728271655825419E+01
             -0.921132290490088E+01
             -0.119385722379850E+02
             -0.499698697018636E+01
             -0.213503868822012E+02
             -0.535577187844952E+01
             -0.163146341974339E+02
              0.360641815040981E+01
             -0.915652259918101E+01
              0.742252197499595E+01
             -0.178749287555131E+02
             -0.650354835543981E+01
              0.113750588461892E+02
              0.456955275317799E+01
             -0.162308234330026E+02
              0.131210013397558E+02
             -0.491967952148399E+01
              0.101525471326921E+02
             -0.607287260502195E+01
             -0.152445547116229E+02
              0.264933457595406E+01
             -0.124007643491865E+02
             -0.374744818708313E+01
              0.572326969639122E+00
              0.886892243926106E+01
              0.247158887105195E+02
             -0.939446516281805E+01
             -0.759808570741112E+01
              0.250269417338572E+00
             -0.270176627262404E+01
             -0.162584204169054E+02
             -0.116404899903155E+02
              0.106050617367033E+02
             -0.579678780354993E+01
              0.293228742607712E+01
             -0.983448394438759E+01
             -0.243330684984022E+01
             -0.839460229620503E+01
              0.108978293593611E+02
              0.431764024631659E+01
             -0.452566448450693E+01
             -0.195754886346175E+01
              0.122226474410547E+01
             -0.147677958705610E+01
              0.889297081818630E+01
             -0.505019172360957E+01
             -0.376480226445722E+00
              0.598869879182011E+01
              0.408501429940770E+01
             -0.256514530784821E+01
              0.309813993550589E+02
              0.968959170374490E+01
              0.742573638993765E+00
              0.291842282759021E+01
             -0.116471925487642E+02
              0.593443020661563E+01
             -0.143959348396677E+02
             -0.508827597263023E+01
             -0.105494007304983E+02
             -0.374345930729459E+01
              0.108305546208668E+02
             -0.106458699785514E+02
              0.269359139733479E+01
             -0.264723775357311E+00
              0.105217870029449E+01
             -0.812830851822955E+01
             -0.911802223718894E+01
              0.550756270367756E+00
             -0.947378372089225E+01
             -0.524485886250085E+01
             -0.827352329949554E+01
             -0.225202745124314E+01
             -0.699973971531469E+01
             -0.103011521123947E+02
              0.470038611413521E+01
             -0.450589503519763E+01
              0.323706024947676E+01
              0.207332512892652E+01
             -0.140573327663470E+02
             -0.110826246523982E+02
             -0.701601040494831E+01
              0.763777364437470E+01
              0.329049332767049E+00
             -0.128866342176351E+02
              0.108529303570490E+02
             -0.814727704717364E+01
              0.103169656045647E+02
             -0.530416921515769E+01
             -0.927439968441143E+01
              0.655756995753417E+01
             -0.135923981582196E+02
             -0.769648352297962E+01
              0.129067574242267E+02
              0.363044543910382E+01
             -0.633120132558761E+01
              0.933261726861037E+01
             -0.307650267574235E+01
             -0.626769683536875E+01
             -0.607282820975173E+01
             -0.967081693006321E+01
              0.387683004626000E+01
             -0.176998583702730E+02
             -0.168167126305812E+02
             -0.128227496644973E+01
             -0.591438229096273E+01
             -0.105694686870342E+02
              0.143580807206100E+02
              0.257550087230362E+02
             -0.730898814481326E+01
             -0.362219884135072E+00
             -0.126417160839368E+02
              0.129034908906297E+02
              0.337872101759746E+01
             -0.257572355143992E+01
             -0.806276521609934E+01
              0.334948096946282E+01
             -0.123793865315364E+02
             -0.351546797920986E+01
             -0.182174874348936E+02
              0.647977746570491E+01
              0.346772677633965E+01
              0.611861187015279E-01
             -0.613117815619390E+00
             -0.565052055803656E+01
             -0.111289856622757E+01
              0.242924161047420E+02
             -0.391223424788311E+01
             -0.801443352179695E+01
             -0.129925748171070E+02
              0.197784781965011E+01
             -0.635060143194257E+01
              0.863716134612645E+00
              0.544092894572290E+01
              0.123338534056709E+01
              0.530652492089752E+01
              0.201053102117893E+01
              0.121928282505368E+02
              0.680557347934042E+01
             -0.625439957825139E+01
              0.684583675402466E+01
              0.730823341930132E+01
              0.240894049851894E+01
              0.883108404122326E+01
             -0.402412675019051E+01
              0.147231897946810E+02
              0.300191210052489E+01
             -0.560697007008794E+01
             -0.106251589454172E+01
             -0.350332041348074E+01
              0.515569738544259E+01
             -0.588372706423454E+01
              0.331989197270310E+00
             -0.160578000821826E+01
              0.164724289871472E+02
              0.996727479629716E+01
             -0.143661748483505E+02
             -0.226159226320760E+00
             -0.110827902785322E+02
             -0.375155000961554E+01
             -0.451910801010927E+01
              0.102025955766047E+01
             -0.614093347103208E+00
             -0.449782493913103E+01
              0.125176568679459E+01
             -0.127587693600915E+01
             -0.252468113273747E+01
              0.172755980219915E+02
              0.417633473781278E+01
             -0.152078606826020E+02
             -0.910075641525589E+01
              0.176187188026466E+02
              0.507848808572314E+01
             -0.180684196292786E+01
              0.207314814376984E+02
             -0.475817546219943E+01
             -0.242732073174773E+01
             -0.745668574831242E+00
              0.207228114833043E+01
              0.484746265787339E+01
              0.107193550035801E+01
              0.569095125169584E+01
             -0.389132178907633E+01
             -0.540026914835287E+01
             -0.791350176793280E+01
             -0.947856161406233E+01
              0.916300393171824E+01
              0.272243527795101E+01
              0.739197119052260E+01
              0.262079366703554E+01
              0.167759873352386E+02
              0.332627435930056E+01
             -0.161138797001494E+02
             -0.639880504305219E+01
              0.288594138516500E+01
             -0.570909109267049E+01
              0.120467092253930E+02
             -0.230798734339646E+01
              0.363711057934160E+01
              0.966222372170146E+01
             -0.144461113637468E+02
              0.292567165799374E+02
              0.356069044750592E+01
              0.517279914559235E+01
              0.667188086196347E+01
              0.181650070475318E+01
             -0.730574993779854E+00
              0.725952986001489E+01
             -0.628380394888023E+01
              0.152387984043223E+02
              0.130938072849525E+02
             -0.764392212430534E+01
              0.278159532244942E+01
              0.135908221284177E+02
             -0.476506191604008E+01
              0.286768542450447E+01
              0.898516021031509E+01
              0.893349435795477E+01
             -0.153661407846033E+02
             -0.294815148965728E+01
             -0.759380662308277E+01
             -0.641964782003285E+00
             -0.459612486714462E+00
             -0.153485719754737E+01
             -0.422560388126968E+01
             -0.493904360154906E+01
              0.602977144886239E+00
              0.258680876524058E+01
              0.104725673850097E+02
             -0.758916138199012E+01
              0.652043756004836E+01
              0.834421591172104E+01
             -0.447472660390548E+01
              0.177762587452900E+02
             -0.135803197215793E+02
             -0.205514130519595E+02
             -0.840291534378502E+00
             -0.778992364040505E+00
              0.816594621246566E+00
              0.148117663462781E+02
             -0.213717939055002E+01
              0.769577335505828E+01
              0.842913318742061E+01
              0.775182775750005E+01
             -0.129061443690054E+01
              0.131850969363839E+02
             -0.284693949772897E+01
             -0.595563834835009E+01
             -0.973617588122110E+01
              0.567271018776818E+00
              0.819711861200813E+01
             -0.165191752515350E+01
              0.832757078537415E+01
             -0.813454189963153E+00
              0.130735692065559E+02
              0.458316689343206E+01
              0.173655051689612E+01
             -0.168289065333096E+01
              0.668227829838332E+01
              0.773062125652882E+01
              0.476902784645650E+01
             -0.203448279181892E+00
             -0.103619984694993E+02
              0.553785272538522E+01
              0.377859681568482E+01
              0.801715376098282E+01
              0.618997616044216E+01
              0.714165938049434E+01
             -0.124271463095374E+01
              0.444209149056762E+01
             -0.518222037362747E+01
             -0.354214729888611E+00
             -0.111801827824607E+02
             -0.676852751872108E+01
              0.775929298565360E+01
             -0.180287491445734E+02
              0.608187678707719E+01
              0.335591558441666E+01
              0.161455114873696E+02
             -0.654676612775339E+01
              0.566303943720007E+01
             -0.280825908341700E+01
             -0.928579279108325E+01
             -0.154717774272043E+02
             -0.699188662474150E+00
             -0.168540876199393E+02
              0.412002334445958E+01
             -0.478255310855792E+01
              0.589800810168732E+01
              0.355601381746368E+01
             -0.423602314385748E+01
             -0.424180150208679E+01
              0.774688134898485E+01
             -0.106360282820622E+02
             -0.202795431717588E+01
             -0.394945672958925E+01
              0.361460552074994E+01
             -0.228272844087645E+01
              0.125473838310587E+01
             -0.422803065127619E+01
              0.111989841031673E+02
             -0.747464533818572E+01
              0.194685168513080E+01
              0.111617606160559E+02
             -0.610167178051864E+01
              0.326307232085988E+00
             -0.177920500340929E+01
             -0.139077021782610E+02
             -0.104572473977751E+02
             -0.203919319555957E+01
              0.467445298243079E+01
              0.575110201642734E+01
              0.938257752025123E+00
             -0.111333237455250E+01
              0.403929025813223E+01
             -0.914788978463372E+01
              0.740469032521304E+00
             -0.997560347511815E+01
             -0.559631098593936E+01
              0.922185371510778E+01
             -0.599665758355380E+01
              0.117965426615987E+02
             -0.328353377443135E+01
              0.762998456116192E+01
              0.471103122056409E+01
             -0.121193516929622E+02
             -0.624035342007802E+01
              0.166514035497003E+01
             -0.678794812142519E+01
             -0.686235488867777E+01
             -0.163501280188104E+02
             -0.110352493036775E+02
             -0.101595904164702E+02
             -0.836274499249441E+01
              0.256610757899786E+00
              0.195228670919873E+01
             -0.596422775537071E+00
              0.289595520326860E+01
             -0.110526147429607E+02
              0.229820255112097E+01
              0.329818233422011E+01
             -0.131414590795862E+02
             -0.133954975881608E+02
             -0.761569452782609E+01
             -0.333205551246411E+01
              0.406395772445540E+01
              0.680836271259182E+00
             -0.946777074306402E+01
              0.794073271115566E+01
             -0.353523146700697E+01
              0.101616031212967E+02
             -0.173276394513761E+02
              0.109948455491137E+02
              0.359459489588685E+00
             -0.685493306043186E+01
             -0.534300071151858E+01
              0.892121579665300E+00
              0.792635623693937E+01
             -0.146272046116452E+02
             -0.295723334001287E+01
             -0.375406312934453E+01
              0.101494518476339E+02
              0.163487207226857E+02
             -0.183499403580757E+02
              0.185894976041363E+02
              0.986978800110504E+01
             -0.145361638136775E+02
             -0.755686607090949E+01
              0.142949536209699E+02
              0.121437151677607E+02
             -0.271505173835138E+01
             -0.870585887968218E+00
              0.147489125168938E+01
              0.127506583261507E+02
             -0.989929638057456E+01
              0.369254814203769E+01
             -0.100518970968960E+01
              0.715926484765907E+01
             -0.145244726986742E+02
             -0.175632143460797E+01
             -0.713252042482881E+01
              0.910581752424959E+01
              0.905595998300377E+01
             -0.165357441018430E+02
             -0.986087142036789E+01
             -0.498526854647139E+01
             -0.632520296182114E+01
             -0.288392407856535E+01
             -0.541089985926401E+01
              0.809057529926586E+01
              0.852992144114084E+01
             -0.180268603333562E+01
             -0.813592802261491E+01
             -0.159751859382481E+02
              0.826906486227685E+01
             -0.103561586513187E+02
             -0.551516593061891E+01
              0.115121958076748E+01
             -0.601561410594240E+01
             -0.837360567183262E+01
             -0.440447046148269E+01
             -0.691454147009465E+01
             -0.565375361456063E+01
             -0.964624765807395E+01
              0.116708899030483E+02
              0.131965511073547E+02
             -0.288664146511564E+00
             -0.532173808235044E+01
             -0.687396639967773E+00
              0.798624469717421E+01
             -0.175585309073207E+02
             -0.375373247992965E+01
              0.104743952386104E+02
              0.119623589926414E+02
             -0.431255476919301E+01
              0.244943374367244E+01
              0.977058960065962E+01
              0.325825709319927E+01
             -0.251827355524784E+01
             -0.824472773489238E+01
              0.485976597596439E+01
             -0.701312120686042E+01
             -0.402059240636181E+01
             -0.331994271905083E+01
             -0.396718668501912E+01
              0.327669807364241E+01
              0.153495178288216E+02
              0.317337657386354E+00
              0.101619424066669E+01
             -0.173484011453990E+02
             -0.308805787941836E+01
             -0.760193253262625E+01
              0.167022790985098E+01
             -0.731720768701665E+01
              0.140389030624519E+02
              0.161870776612507E+02
              0.308768837767288E+01
             -0.208298622681716E+01
              0.244354336513081E+01
              0.584057809870407E+01
             -0.918508756374608E+01
             -0.115270610234086E+01
              0.169872517753453E+01
              0.337072915766483E+01
              0.109319561152300E+02
              0.922331357844741E+01
             -0.426702296630614E+01
              0.668657538693436E+01
             -0.182557230584956E+02
             -0.104786347175287E+01
              0.167808946658594E+02
              0.212989624831243E+01
              0.573509334444012E+00
              0.626110289556773E+01
             -0.532134735692747E+01
              0.192698766214139E+02
             -0.183288704582249E+01
              0.173381412480553E+02
              0.699312706869904E+01
             -0.743337213695889E+01
              0.597477333321253E+01
             -0.638795900877285E+01
             -0.130556426156429E+02
             -0.120427485941886E+01
             -0.109227240057150E+02
             -0.108019521497010E+02
             -0.115358749886867E+01
              0.513697185658305E+01
             -0.511674884071724E+00
             -0.748656745531636E+01
              0.162279954165071E+01
             -0.147193478286644E+02
             -0.202996217210143E+01
             -0.165005664247844E+02
              0.112594973051386E+02
             -0.415238401840742E+00
             -0.952351521797762E+01
             -0.490905559644020E+01
              0.372859533578272E+01
             -0.547493691525283E+01
             -0.930592525046752E+01
              0.164411038765555E+02
             -0.403182184379831E+01
             -0.996745287522765E+01
              0.454208329267659E+01
             -0.120219925938623E+01
              0.914887116696315E+01
              0.454812652136383E+00
              0.255905818355437E+01
              0.191417775311814E+02
             -0.449185497622352E+01
             -0.669643854092303E+01
             -0.609596090494816E+01
             -0.112008903685532E+02
             -0.647112129958737E+01
              0.543477561024680E+01
              0.320323497705721E+01
              0.428851376966386E+01
              0.151876888962310E+02
              0.137353553642882E+00
              0.288743860982180E+01
             -0.135531704738964E+02
              0.208776393653167E+00
             -0.551440450538513E+01
             -0.546900350903610E+01
              0.177152536613266E+01
              0.661707003195757E+01
              0.741194954523280E+01
              0.468546725746023E+00
              0.121480907623929E+01
              0.625450654975316E+01
              0.849962065739394E+01
             -0.457498064585040E+01
             -0.269504097742066E+01
              0.611199178410160E+00
             -0.474992149663356E+01
             -0.244449479232748E+01
             -0.364192715165554E+01
              0.141248160717064E+02
              0.125060677801696E+02
             -0.219535499802214E+01
              0.177734701849617E+01
             -0.218199692382690E+00
             -0.311379823317173E+01
              0.597126131869343E+01
             -0.196577842260407E+01
              0.704957891489047E+01
             -0.111078080043274E+02
              0.406913373743872E+01
             -0.236942926704256E+01
             -0.114216954636694E+02
             -0.568284821246982E+01
              0.562977663651090E+01
             -0.168214653166516E+02
              0.799465420955414E+01
              0.995288633170948E+01
             -0.117211958052497E+01
             -0.104557937113367E+01
             -0.721896296942170E+00
              0.452718206611210E+01
             -0.634655370124464E+01
              0.736960223280377E+01
              0.541279372622414E+01
             -0.222041377801129E+02
             -0.621815445613812E+01
              0.456825943979965E+01
             -0.180922047185076E+01
              0.642429051470485E+01
             -0.115080826498698E+02
              0.492811774095884E+00
             -0.832741896043814E+01
             -0.235793493752433E+02
              0.150837282875489E+02
             -0.119577930794636E+02
             -0.111485474701955E+02
              0.192461467224140E+01
              0.249480418386793E+02
              0.448119526009592E-01
             -0.340098839297124E+01
              0.234132776049023E-01
             -0.148813908879463E+01
             -0.181097447052337E+02
             -0.125792473017231E+02
              0.155601429286306E+02
             -0.445004615102420E+00
             -0.841000558832338E+01
              0.111105707902056E+02
             -0.669668786834402E+01
              0.780509233660868E+01
              0.109790469202808E+02
             -0.127402328800672E+02
             -0.455149981020637E+01
             -0.683023339724953E+01
             -0.199037169431408E+01
             -0.400522364578611E+01
             -0.550904742290498E+00
              0.277910622239611E+01
             -0.623565388108070E+01
              0.608636134641490E+01
              0.124502902515094E+02
             -0.420036701127694E+01
             -0.296020175451754E+01
              0.215647144314569E+01
              0.110772898053425E+02
              0.943471688857162E+01
             -0.743266800139985E+00
              0.375050379564868E+00
             -0.172154172012554E+00
             -0.970501580172268E+01
              0.718427561248415E+01
             -0.503034938350703E+01
              0.301683938178321E+01
             -0.353618900433167E+01
              0.656282355111703E+01
              0.301921521972420E+01
             -0.152872448357848E+02
             -0.597149234203192E+01
             -0.151695911648157E+02
             -0.566280645961456E+01
              0.154069807935034E+01
             -0.309863074196450E+01
              0.572710592479878E+01
             -0.574718732379319E+01
              0.184232535512283E+00
              0.206241909866692E+01
              0.156888191399719E+02
              0.826121183430263E+01
             -0.441553511631413E+01
              0.852178684251385E+00
              0.190381145527959E+01
              0.762253839589228E+01
             -0.132085219102862E+00
              0.967336110375254E+01
              0.545122385193907E+01
              0.172197315381121E+02
              0.103306096544853E+01
              0.141882211983083E+02
             -0.517916104940716E+01
             -0.789214296396425E+01
              0.229697187695304E+01
              0.679652858719294E+00
              0.635823514508684E+01
              0.409595570475773E+00
             -0.330452098150556E+01
              0.444182042080895E+01
             -0.838529454282562E+01
             -0.959346041802350E+01
              0.145656809492402E+02
             -0.170085769025246E+01
             -0.930280286491479E+01
             -0.103573056804031E+00
             -0.287998994951533E+01
              0.536841792764806E+01
              0.665405218378891E+01
             -0.399854649224991E+01
             -0.353117137385190E+00
             -0.565720132111716E+01
             -0.621983091094124E+01
             -0.601273356405005E+01
             -0.187811428853280E+02
             -0.175263310947096E+01
             -0.140195084692152E+02
             -0.106547311387725E+02
             -0.916636812854144E+01
              0.260845040411090E+01
             -0.790580624926604E+01
              0.325369780930045E+01
             -0.108112564083329E+02
             -0.258350728724679E-01
             -0.789717070562159E+01
              0.106614339462901E+01
              0.172148390400672E+01
              0.483267434641455E+01
             -0.350629891161984E+01
             -0.334254141157670E+01
              0.487758080024513E+01
              0.120438578993019E+02
              0.608678416963220E+01
              0.119840693896779E+01
             -0.131531821589938E+02
             -0.200568041407119E+01
             -0.647017568109945E+01
             -0.121800639197016E+02
              0.876945264583830E+01
             -0.657259795961555E+01
             -0.820878541147806E+00
             -0.389465418961222E+01
             -0.203581573189705E+02
              0.987534492159640E+01
             -0.288344208167794E+01
              0.844959451593141E+01
             -0.140192867393555E+02
              0.126334359783702E+02
              0.764556820112915E+00
             -0.663898247926291E+01
              0.394519189701910E+00
             -0.542851390316414E+01
             -0.148063617796093E+02
              0.299152168208431E+01
              0.401941247422326E+01
              0.974282318370342E+00
             -0.678289309181650E+01
             -0.198903817747868E+01
              0.272438392191859E+01
              0.527082665845953E+01
              0.128325722260696E+02
              0.554928362242472E+01
             -0.426924621020078E+01
              0.156108693490605E+02
              0.637814117408957E+01
              0.673219261917563E+01
             -0.317212560616188E+01
              0.569543687938951E+01
              0.256759042119128E+01
             -0.123986629050499E+02
             -0.387444400901074E+01
             -0.747520049106771E+01
             -0.512798459695277E+01
             -0.151615098337589E+01
             -0.395661355459546E+01
             -0.611304604030792E+01
             -0.228723152093097E+02
             -0.589122919514056E+01
              0.360743681732433E+01
              0.122000206406938E+01
              0.734166765937523E+00
              0.102778944077767E+02
              0.412748381163984E+01
              0.655114650375313E+01
             -0.831972499535773E+01
              0.939821097762197E+01
             -0.986644966711179E+01
             -0.155965452799627E+02
              0.290236195446124E+01
             -0.696546015646369E+01
             -0.843093786250965E+01
             -0.312315597798598E+02
             -0.242719891727136E+01
              0.154113597408609E+02
              0.101642592766593E+02
             -0.236669747158365E+01
             -0.185302656325003E+01
              0.459129998025459E+01
              0.131575090190125E+02
             -0.830337163189580E+01
             -0.184149452935297E+01
             -0.599239819928877E+01
             -0.747471198134869E+01
             -0.690178107119397E+01
              0.387046161079130E+01
              0.152277285951270E+02
             -0.130227323002059E+02
             -0.100977819145012E+02
             -0.135264025101520E+00
             -0.138704457795176E+01
             -0.316715616088219E+01
             -0.188597503162633E+02
              0.981621299450566E+01
              0.560529772425159E+01
              0.106631852549995E+01
              0.986882634927179E+01
             -0.568347679009642E+01
              0.587154524933115E+01
              0.549126216178114E+01
              0.173901215576510E+01
             -0.105325382526065E+01
              0.311226851633088E+01
             -0.262513003936368E+01
              0.842351266957397E+01
             -0.910314941630867E+01
              0.760158830077398E+01
              0.175612525717742E+01
              0.172119776575742E+01
              0.500735620115185E+01
             -0.166849199342072E+02
              0.914190929576492E+00
             -0.126270969696954E+02
             -0.101121002490802E+02
             -0.100186910236291E+02
             -0.830667647039108E+01
              0.791399034570674E+00
              0.215177999559992E+01
              0.936653945079183E+01
              0.222799502098051E+01
              0.262767162882752E+01
             -0.145274327107268E+02
             -0.511372331623083E+01
              0.665865917280882E+01
              0.159059092996084E+01
              0.750764015814255E+00
             -0.141420991292682E+01
              0.753924751678019E+01
             -0.183526679045047E+02
              0.202084679043666E+01
              0.551129494584542E+01
              0.879887511579153E+01
              0.771147393128427E+01
             -0.114840374298329E+02
              0.119977971456316E+01
              0.409640436240824E+00
              0.911863065633824E+00
             -0.603977182200438E+00
             -0.394315485304067E+01
             -0.548037726837902E+01
              0.291088901120575E+01
              0.126222379877893E+02
             -0.282615265843725E+01
              0.154689946001069E+01
              0.289631538912606E+01
             -0.457661614366448E+01
             -0.424073274022328E+01
             -0.222758003710172E+02
             -0.811733428431020E+01
             -0.874856718963684E+01
             -0.182665714679823E+01
             -0.120060131179365E+02
              0.153154731887929E+02
             -0.566679646635896E+01
             -0.105338785438289E+02
             -0.316921601292218E+02
              0.133064638416291E+02
              0.243935507362416E+01
             -0.212463668642395E+01
             -0.124665486267036E+02
              0.174186602083087E+01
             -0.315447524601939E+01
             -0.688103062847264E+01
              0.184148823467571E+01
              0.623853355736800E+01
              0.170157351377878E+01
             -0.244739068043060E+01
             -0.133780085071038E+01
             -0.896990915736637E-01
              0.504675588519413E+01
             -0.119283811953349E+02
              0.133484715101443E+02
             -0.832295451953602E+01
             -0.515066582999966E+01
             -0.661211406044572E+01
             -0.179046901674134E+02
              0.195674637955096E+01
             -0.875081255153998E+01
             -0.543834237213576E+01
              0.712833669813813E+01
             -0.412900716265189E+01
              0.886163433111108E+00
             -0.178127164873951E+01
             -0.632989192196941E+01
             -0.175544509441820E+00
              0.101783043143597E+02
             -0.110349843547025E+02
              0.169197484797539E+02
             -0.312525694119053E+01
              0.755141432838067E+01
              0.758521096099329E-01
              0.313718374633988E+01
             -0.254977141641210E+01
              0.979831877189950E+01
              0.127364562366123E+02
              0.367570664415626E+01
              0.118455692537407E+02
             -0.834583000401337E+01
             -0.118030898901926E+00
             -0.496635230048788E+01
              0.133582897742436E+02
              0.111028196905720E+02
              0.875552583116493E+01
             -0.288049692618060E+01
             -0.596839597627488E+01
              0.504509618669001E+01
             -0.487367162163837E+01
             -0.276257083420174E+01
             -0.174772533372090E+01
             -0.458011080514890E+01
              0.105632246880277E+02
             -0.674477192423911E+00
              0.762368494147183E+01
              0.191512640073043E+01
              0.401429854171008E+01
             -0.695674742940965E+01
              0.715265694077208E+01
             -0.353366379586976E+01
             -0.252312480267409E+01
             -0.720909799782476E+00
             -0.108968364535554E+02
              0.160809594020813E+02
             -0.598352011551622E+01
             -0.524912077666855E+00
              0.337816032213289E+01
              0.369500261582815E+01
              0.139997804166629E+02
             -0.311945167996734E+01
              0.154122523686300E+02
              0.135026955760824E+02
             -0.194608899389585E+02
              0.235689821933758E+01
             -0.445564652717626E+01
              0.191657611281532E+01
              0.175211365871129E+01
              0.234058321495498E+01
              0.118582818736537E+02
              0.165704108092377E+02
             -0.159389367267099E+02
              0.156855568726426E+02
             -0.174771946686936E+02
             -0.140997396883953E+02
             -0.166959811110107E+01
              0.939735888384945E-01
              0.129751223507594E+02
              0.873068849580997E+01
             -0.474684441899539E+01
             -0.192365293371759E+02
              0.138351422414313E+02
             -0.953412320113866E+01
             -0.485766277815486E+00
             -0.784826574237648E+00
              0.245929534694182E+02
             -0.601373116297125E+01
             -0.208692457997276E+02
              0.586154164541225E+01
             -0.313426599082062E+02
              0.248962910160002E+01
             -0.685580654979422E+01
             -0.348342786969764E+01
             -0.581193021881199E+01
             -0.112110769150020E+02
              0.839518530365445E+01
             -0.648718819497443E+01
             -0.130604894994779E+01
             -0.155098999499348E+02
             -0.152868407565357E+01
             -0.905813992162687E+01
             -0.148335631290704E+02
             -0.259251675223151E+02
              0.270181408374334E+01
             -0.546163478210482E+01
             -0.176214779677721E+01
             -0.213095248318118E+01
             -0.156779020257010E+02
             -0.121489151690714E+02
             -0.106931455540230E+02
             -0.962314001051297E+01
              0.107940559416992E+02
              0.274156579463870E+01
             -0.892989005184305E+01
             -0.374725705384638E+01
             -0.410392147605943E+01
              0.679241576195704E+01
             -0.682805353417002E+01
             -0.353899888969928E+01
             -0.365028276970303E+01
             -0.734033030260073E+01
             -0.686639546316324E+01
              0.795655898834064E+01
             -0.373720971149990E+01
             -0.173294658226532E+02
              0.159787521558011E+02
              0.999162575905198E+01
              0.195092750331366E+01
             -0.141221836305264E+02
             -0.149820138802443E+02
              0.264372767921117E+01
              0.833282725601862E+00
             -0.555438019934530E+01
             -0.100118115076273E+02
              0.796222654172220E+01
             -0.191088992458262E+01
              0.507605193715966E+01
              0.982576382474642E+01
              0.706223607988341E+01
              0.685451063031456E+01
              0.524309775854185E+01
             -0.400696919744623E+01
             -0.196142198176523E+01
             -0.378364413548427E+01
             -0.649040644298461E+01
             -0.971941225611826E+01
             -0.133579631043364E+02
             -0.809460589452612E+01
             -0.165318512377998E+01
             -0.171026108156913E+02
             -0.315017984206548E+00
              0.531128957602308E+01
             -0.121265334022051E+02
              0.436621797727309E+01
              0.307274226511883E+01
             -0.129741075562324E+02
             -0.115362466266928E+02
             -0.275498029060527E+01
              0.485903465179016E+01
             -0.782788446990190E+01
              0.134776035137508E+02
              0.118509852073934E+02
             -0.147835642607298E+02
              0.111149004109140E+02
              0.716211466406546E+01
              0.180340446473697E+01
              0.548228351891864E+01
             -0.815924741545620E+01
             -0.245711572351451E+01
              0.264348247168925E+00
              0.329382208175986E+01
              0.937987762847643E+01
             -0.102914347111997E+02
             -0.222747652758343E+00
              0.421309244379034E+01
             -0.215390531727971E+01
             -0.460684575362208E+01
              0.379724891521465E+01
             -0.580341884376328E+01
             -0.368937142792044E+01
              0.135166888436022E+01
             -0.118573246123892E+02
              0.520057170723341E+00
             -0.616230073668692E+01
             -0.197967110678384E+01
             -0.916901501189216E+00
             -0.115184864975889E+02
              0.101017879446977E+02
             -0.549899929915280E+01
             -0.240878210200874E+02
             -0.168753111071635E+02
              0.796746119488768E+01
             -0.578560719273247E+01
             -0.320154660343593E+01
             -0.643068405175506E+01
             -0.307095065028728E+01
             -0.190963827456913E+02
             -0.314396692186995E+01
             -0.125069983374817E+02
             -0.570560649300032E+01
              0.587977211620972E+01
              0.136650355106088E+02
             -0.328119759945311E+00
             -0.492305853100220E+00
              0.110443151655886E+02
             -0.834795179271418E+01
              0.788838786583637E+01
              0.221615334554023E+01
             -0.741500759591312E+01
             -0.213633028594461E+01
              0.489941374603208E+01
              0.157191846254996E-01
              0.167088266663361E+01
              0.271444545444772E+01
             -0.442581173098762E+01
             -0.481007672323466E+01
             -0.104388838027972E+02
              0.910030699622364E+01
             -0.120905136433628E+02
             -0.917189220859314E+01
              0.240956697756501E+01
             -0.177054674682031E+02
              0.304412836415332E+01
              0.110888006835149E+02
             -0.350099213494083E+00
              0.537771685543923E+00
             -0.386354833470581E+01
             -0.373098696551307E+01
              0.161196926100925E+01
              0.738097356832152E+01
             -0.804101243002325E+01
              0.652147597129272E+01
             -0.235283015669387E+01
             -0.286886997470116E+01
              0.599482904165149E+01
              0.445486263875083E+01
             -0.712252536796736E+00
             -0.503488849854321E+00
              0.522764660739969E+01
              0.557549138457075E+01
             -0.141111898740005E+02
              0.216084023305393E+01
              0.111145256314309E+02
             -0.199482391379952E+02
              0.638891360969762E+01
             -0.239946582293656E+02
             -0.114018828284767E+01
             -0.321662202538377E+01
             -0.231974007425279E+01
             -0.136591853923579E+01
             -0.501455845263470E+01
             -0.183092622853565E-01
              0.407869189091584E+01
             -0.395387575390568E+01
              0.258531903721037E+01
              0.165835363645539E+02
             -0.131684717902716E+02
             -0.535958778825068E+01
              0.653889515640562E+01
              0.505073295656099E+01
              0.700659740670292E+01
              0.205734123851938E+01
              0.679335409674953E+01
             -0.348708371038788E+01
             -0.927811040145730E+01
             -0.810488932869607E+01
             -0.255121323744519E+01
             -0.838708477153112E+00
             -0.814218719230200E+01
             -0.302864620642062E+01
              0.158458775542881E+01
              0.415841946304568E+01
             -0.206611747954560E+01
              0.106660152150196E+02
             -0.866117070280139E+01
[...]
              0.119433634867252E+02
              0.119527477945704E+02
             -0.115588559232077E+01
             -0.648621608775912E+00
             -0.161226614773102E+01
             -0.969069791318885E+01
             -0.132810833697111E+02
              0.163034894013652E+02
             -0.133793018913821E+01
             -0.120852784202562E+02
             -0.361561299360744E-01
             -0.416816246587870E+01
              0.179855688130799E+02
             -0.416617371702736E+01
             -0.681720724495329E+01
              0.571772417032533E+01
             -0.249327321913616E+01
              0.802953734168990E+01
             -0.200122153855494E+01
              0.203677884131319E+02
              0.931344147391618E+01
             -0.111938248146545E+01
             -0.663903866696737E+01
              0.450723845716813E+01
             -0.108169801390375E+02
             -0.258119661309066E+01
              0.117649257861044E+02
             -0.538278450423334E+01
             -0.916095435383619E+01
             -0.398270855816116E+01
              0.106684126164503E+02
              0.314098534650648E+01
             -0.167677928398518E+02
              0.574544982481233E+01
              0.350992499463082E+01
              0.832717429896860E+00
             -0.979314944844222E+01
             -0.100906973032878E+00
              0.694537117333398E+01
              0.106533742168707E+02
              0.118085849957740E+02
              0.465262780640071E+01
              0.110031125778163E+01
             -0.923793358107149E+01
             -0.934859513524341E+01
             -0.154430244913340E+02
             -0.613782632145586E+00
              0.601752323979996E+01
             -0.477610656828656E+00
              0.109663336846372E+02
             -0.607585937897846E+01
              0.393886278508941E+01
             -0.148094988875401E+01
             -0.530327275388901E+01
              0.110039074494809E+02
              0.151239023937119E+01
              0.114091434051755E+02
              0.742228412376704E+00
              0.536809343085089E+01
             -0.382152645905916E+01
              0.121783360546126E+02
             -0.121577451595108E+01
             -0.653637651613851E+00
             -0.154737484085243E+02
             -0.238364937117182E+01
              0.144048705292593E+02
              0.138963119070860E+02
              0.455101941247410E+01
             -0.265238373733440E+01
             -0.705138509282186E-01
             -0.299322603694414E+01
              0.230115545857863E+00
              0.170822448560941E+02
             -0.855295364847564E-01
             -0.396880721839396E+01
             -0.222216022423350E+02
             -0.117704510833974E+02
             -0.709097552731811E+01
             -0.137046588304270E+02
             -0.106364644803214E+02
             -0.140732703605105E+02
             -0.876953727278817E+01
             -0.830572991304788E+01
             -0.878654885867595E+01
              0.915020000134241E+01
             -0.613431135212272E+01
             -0.212613210048500E+02
              0.819126701335699E+01
             -0.504815117703048E+01
             -0.159256137330868E+02
              0.190875506094047E+02
             -0.408029865170237E+01
              0.465488281864944E+01
              0.882494765593287E+01
             -0.128086193884164E+01
              0.453910348865064E+01
              0.307744319821630E+00
             -0.680745029606356E-01
             -0.213212923820229E+01
             -0.132831840331640E+02
              0.224324125052151E+01
             -0.260059528664397E+02
              0.112877893428304E+02
             -0.843070430973131E+01
             -0.265381782601412E+01
             -0.336799275459290E+01
              0.130083759117790E+01
             -0.440938467951341E+01
              0.648158863740536E+01
             -0.104607970583013E+02
              0.771546761816438E+01
              0.641775377134788E+01
              0.421154157675536E+01
              0.119188599459648E+01
              0.374399703568993E+01
              0.101088833742959E+01
              0.677154655315638E+01
             -0.167547486396028E+01
             -0.105595279646998E+02
              0.172357541612806E+01
             -0.385513912473770E+01
             -0.146548986402678E+00
              0.875627172306822E+01
             -0.161997010880165E+02
             -0.654420523419120E+00
              0.547248252152883E-01
              0.171114318195453E+01
              0.663285299576999E+01
             -0.261338856790894E+01
              0.167499735658085E+02
              0.100710131348439E+02
             -0.402812164608535E+01
             -0.286203230115635E+01
              0.170586032990194E+00
              0.156232954256720E+02
             -0.115979947379002E+02
             -0.207296315524323E+02
              0.537434101901263E+01
             -0.229254775748149E+01
             -0.167136162077783E+01
              0.308256448590726E+01
              0.156613336303157E+02
              0.938785125257125E+01
             -0.345869650208152E+01
             -0.952637592648058E+01
             -0.951633618998237E+00
              0.604604521159956E+01
             -0.213928516018768E+01
             -0.146297790730191E+02
             -0.102755306901187E+00
             -0.173096631075701E+02
             -0.921759849856900E+01
              0.148491472022572E+02
             -0.930315239966547E+01
             -0.125227237805811E+02
             -0.101635787486608E+02
             -0.669004560709419E+01
              0.570476428154622E+01
              0.158783097305369E+02
             -0.223825578907892E+00
              0.559116285203113E+01
             -0.294384890935207E+01
             -0.133806240013792E+02
              0.921580720420082E+01
             -0.850676555239670E+01
              0.657314019445518E+01
              0.784466966184477E+01
             -0.137614069906301E+01
              0.876152633020451E+01
              0.895807493654559E+01
              0.193398139075551E+02
             -0.354497084577045E+01
             -0.799303101110640E+01
             -0.125227509304325E+02
             -0.254119738330831E+01
             -0.408248319786001E+01
              0.207360910988953E+02
             -0.842714242210856E+01
              0.190761210898016E+01
              0.213245762357525E+01
             -0.546649488427116E+01
             -0.148548633257906E+02
             -0.119538333281591E+01
              0.189551224343967E+02
              0.137552223318260E+01
              0.170059115816079E+01
             -0.944591792482854E+01
             -0.119343066866368E+02
             -0.100778907055978E+01
              0.984439359668404E+01
             -0.407494895744882E+01
              0.212814737754940E+02
             -0.712382570442466E+01
              0.293123012789103E+01
             -0.544091051457873E+01
             -0.137182292675331E+02
              0.498673380006849E+00
             -0.100175702433342E+02
             -0.147916702072480E+02
              0.760434829377687E+00
              0.576804018978720E+00
              0.971372184672202E+01
              0.377723664502276E+01
             -0.622822364605864E+01
              0.481276583118211E+01
             -0.148533481718451E+02
             -0.109531883646057E+02
              0.179652321248249E+02
              0.346441797484464E+01
             -0.360259491669100E+01
             -0.685001038046241E+01
             -0.227407494248752E+00
             -0.107005430261276E+01
              0.152027057231644E+02
              0.761985343731437E+01
             -0.359212990453737E+01
             -0.252589713056095E+01
             -0.843113237621934E+01
             -0.468155243499844E+01
             -0.137367134546137E+02
              0.880691658669805E+01
              0.973282609505588E+00
              0.299529908727844E+01
              0.249767839245548E+01
             -0.382291757175917E+00
             -0.311801620439479E+01
             -0.150731899640780E+01
             -0.196929835900421E+02
             -0.414372906660448E+01
             -0.793721813572773E+00
             -0.185551344230279E+01
              0.120291219420459E+02
              0.115898486166062E+02
              0.301342489059263E+01
             -0.187650049050550E+02
              0.130587733722424E+02
             -0.428193999502243E+01
             -0.751095844107249E+01
             -0.170099557338287E+02
             -0.757765305281016E+01
              0.102867104280092E+02
              0.428696154099876E+01
              0.121479776367873E+01
              0.552421007873595E+01
             -0.108602227178804E+02
             -0.816771250489985E+01
              0.103149505012565E+02
              0.778254270258793E+01
              0.106323861218797E+02
             -0.133489825303579E+01
              0.104947029174066E+01
              0.109115274933359E+02
              0.194442059139019E+02
             -0.602926460545812E+01
              0.637886220193883E+01
             -0.986455947235115E+00
             -0.792731401858960E+01
             -0.594699891879694E+01
             -0.497572058274667E+01
             -0.264699008959028E+01
             -0.107487160435390E+02
             -0.501191762456968E+01
             -0.272953294796519E+02
              0.648948579808000E+01
              0.422614325699992E+01
             -0.345756484926296E+00
             -0.793264401449116E+01
             -0.487113706825842E+01
             -0.100345798763032E+02
              0.256178822032562E+01
              0.160851836542441E+02
             -0.416499685140113E+01
             -0.318636142746218E+01
              0.434823819997087E+01
             -0.877063533209103E+01
              0.175961476382492E+02
              0.356395127552623E+01
              0.435459745861201E+01
              0.104830536109568E+02
              0.121539512822061E+01
              0.110622508970053E+02
              0.260772614900418E+01
             -0.253168472052084E+01
              0.220281800676747E+01
              0.734536172288358E+00
              0.148221025795535E+02
              0.160033618302438E+01
              0.216984392152436E+01
             -0.161251070392231E+01
              0.209854623564647E+01
             -0.181574363872345E+02
             -0.714855039297984E+01
             -0.865256392184244E+01
              0.107854827997385E+02
             -0.563735564388065E+01
             -0.131993754166310E+02
              0.110594567220922E+02
             -0.274493480845763E+01
              0.903013119713657E+01
             -0.180441658266307E+02
              0.548086310202243E+01
              0.211920249844341E+01
              0.896591474603781E+00
             -0.136588349487160E+01
             -0.139676498441267E+01
              0.921100343379493E+01
              0.304547000425174E+00
             -0.914326076733921E+01
             -0.299877849633720E+01
              0.589456974524197E+01
             -0.230541540825973E+02
             -0.188003492405451E+02
              0.689033072637130E+00
              0.199571169483920E+01
             -0.760169405592130E+01
             -0.910096074247875E+00
              0.221193486381275E+02
              0.742461198163664E+01
             -0.112491990071700E+02
              0.184495856884875E+01
             -0.202504079840072E+01
              0.158729944941339E+01
             -0.613387864342289E+01
              0.312082368012724E+01
              0.551068012383962E+01
             -0.127127870209929E+01
              0.215013140269051E+02
             -0.252883330483137E+01
             -0.643258942648060E+01
              0.317424927448809E+01
              0.867302874694548E+01
             -0.718210564236257E+01
             -0.754822671494562E+00
              0.184813269201939E+02
             -0.838273794990045E+00
              0.114363265980711E+02
              0.282496702595245E+01
             -0.249907122285696E+01
             -0.563228494200435E+01
              0.117146651987334E+02
             -0.106891562078344E+02
             -0.682228487521975E+00
             -0.305513592693271E+01
             -0.844428627389835E+01
              0.310053295840419E+01
              0.373993638389183E+01
              0.223651954752060E+01
             -0.284091979872926E+00
             -0.745805030905629E+01
              0.468898206437962E+01
             -0.798082209073002E+00
             -0.541745759430415E+01
             -0.454455317670762E+01
              0.495818931384944E+01
             -0.789580961092724E+00
             -0.691308166417581E+01
             -0.202751178338100E+02
              0.129808723333701E+01
              0.523535046876297E+01
             -0.774958035476056E+01
             -0.396782121680842E+01
              0.157128520663656E+02
              0.765498191515718E+00
              0.618686792933960E+01
              0.712168976862095E+00
              0.642404945732401E+01
              0.785787308022179E+00
             -0.773618568034560E+01
              0.688477979269479E+00
              0.202146762129668E+01
              0.490480482151864E+01
              0.165133355924555E+02
              0.989922715143027E+01
              0.243112823519027E-01
              0.237520889877114E+01
              0.117935252698400E+02
              0.481955601952250E+01
             -0.152061481664664E+02
             -0.530711809412027E+01
              0.319624226762156E+01
              0.142380779143941E+01
              0.544360714110675E+01
             -0.108257459952144E+02
              0.265311898477253E+01
              0.687033463526492E+01
              0.100896536263277E+02
             -0.900543520990294E+01
             -0.175542006481425E+01
             -0.534699216020812E+00
             -0.282777519935756E+01
             -0.763210711283557E+01
             -0.440959290271168E+01
              0.431038460545366E+00
              0.134490012975022E+01
              0.806775426522756E+01
             -0.641188882085365E+01
              0.158463120125963E+02
              0.716879241317191E+01
              0.404248332399372E+01
              0.601353722444363E+01
              0.678517381808258E+01
              0.561895163246873E+01
              0.107121394051546E+02
             -0.863378161608984E+01
              0.122236022862803E+02
             -0.212851236514579E+02
              0.620453808894223E+01
             -0.211742609239495E+02
              0.167277818487226E+02
              0.138114852624565E+02
             -0.235966706367978E+01
             -0.998487719631926E+01
             -0.804721914267525E+01
             -0.123420224453400E+02
             -0.121618533642814E+02
              0.106730825690251E+02
              0.833046445825433E+01
              0.494763310819276E+01
              0.744023175878482E+01
              0.726502044301148E+01
             -0.753168112901456E+01
             -0.393405000381088E+01
              0.111867260574494E+02
             -0.190974439546589E+01
              0.997431010698218E+01
              0.138146429956223E+02
             -0.383179355531651E+00
             -0.138669910898103E+02
             -0.958308670897495E+00
              0.217237786044384E+00
             -0.185245506539050E+01
              0.483236613558304E+00
             -0.131344713346413E+02
             -0.481643410672669E+01
              0.951494644144582E+00
              0.864425333325059E+00
              0.918618630374899E+01
             -0.749564944233471E+01
              0.134411360565125E+02
             -0.821434380185629E+01
              0.365228562982830E+01
              0.726113743416559E+01
 
 BEEF-vdW xc energy contributions
           1 :   -156.280568246156     
           2 :    145.398600970733     
           3 :   -125.899019248494     
           4 :    101.524885115559     
           5 :   -76.3619769022070     
           6 :    53.7774707048612     
           7 :   -35.7393882583847     
           8 :    22.6607721648613     
           9 :   -13.7415346820326     
          10 :    7.60926960474859     
          11 :   -2.98116082488826     
          12 :  -0.900740819442774     
          13 :    4.17341779349982     
          14 :   -6.55580803559388     
          15 :    7.69571735345107     
          16 :   -7.47918593873811     
          17 :    6.16825268529004     
          18 :   -4.33256993349852     
          19 :    2.63201080363734     
          20 :   -1.56681922646510     
          21 :    1.31186556068380     
          22 :   -1.70204401104462     
          23 :    2.35782310259759     
          24 :   -2.88034993499554     
          25 :    3.02182240503245     
          26 :   -2.76161770343049     
          27 :    2.27001100127615     
          28 :   -1.79449253792671     
          29 :    1.53021553432870     
          30 :   -1.53588271938355     
          31 :   -12.7972777059384     
          32 :   -9.44634029926527     

     Forces acting on atoms (Ry/au):


     negative rho (up, down):  2.727E-01 2.727E-01
     atom    1 type  1   force =     0.00000000    0.00000000    0.00476749
     atom    2 type  1   force =     0.00000000    0.00000000    0.00000000
     atom    3 type  1   force =     0.00000000   -0.00000000   -0.00476749

     Total force =     0.006742     Total SCF correction =     0.000602
 !ASE

     Writing output data file calc.save
 
     init_run     :     12.31s CPU     13.97s WALL (       1 calls)
     electrons    :    308.35s CPU    311.86s WALL (       1 calls)
     forces       :      1.73s CPU      1.74s WALL (       1 calls)

     Called by init_run:
     wfcinit      :     10.64s CPU     10.71s WALL (       1 calls)
     potinit      :      0.78s CPU      1.60s WALL (       1 calls)

     Called by electrons:
     c_bands      :    263.80s CPU    266.02s WALL (      12 calls)
     sum_band     :     13.63s CPU     13.92s WALL (      12 calls)
     v_of_rho     :      6.07s CPU      6.85s WALL (      13 calls)
     newd         :      4.37s CPU      4.50s WALL (      13 calls)
     mix_rho      :      0.54s CPU      0.54s WALL (      12 calls)
     vdW_energy   :      1.20s CPU      1.44s WALL (      48 calls)
     vdW_ffts     :      8.35s CPU      8.74s WALL (      96 calls)
     vdW_v        :      3.24s CPU      3.31s WALL (      48 calls)

     Called by c_bands:
     init_us_2    :      0.24s CPU      0.25s WALL (     260 calls)
     cegterg      :     49.80s CPU     51.78s WALL (     120 calls)

     Called by *egterg:
     h_psi        :     46.35s CPU     47.93s WALL (     528 calls)
     s_psi        :      0.74s CPU      0.72s WALL (     528 calls)
     g_psi        :      0.08s CPU      0.08s WALL (     398 calls)
     cdiaghg      :      4.27s CPU      4.21s WALL (     518 calls)

     Called by h_psi:
     add_vuspsi   :      0.72s CPU      0.72s WALL (     528 calls)

     General routines
     calbec       :      3.42s CPU      3.44s WALL (     658 calls)
     fft          :     17.63s CPU     18.79s WALL (    3266 calls)
     ffts         :      0.13s CPU      0.14s WALL (      50 calls)
     fftw         :     49.94s CPU     51.60s WALL (   24188 calls)
     interpolate  :      0.27s CPU      0.29s WALL (      50 calls)
     davcio       :      0.02s CPU      0.29s WALL (      10 calls)
 
     Parallel routines
     fft_scatter  :     50.63s CPU     53.24s WALL (   27504 calls)
 
     PWSCF        :  5m31.88s CPU     5m46.54s WALL

 
   This run was terminated on:  20: 6:41  11Apr2017            

=------------------------------------------------------------------------------=
   JOB DONE.
=------------------------------------------------------------------------------=
