  python dir          : /gpfs/pace1/project/chbe-medford/medford-share/INSTALL/lib/python2.7/site-packages/espresso
  espresso dir        : /nv/hp22/amedford6/medford-shared/builds/espresso/5.1.r11289-pybeef/intel-16.0+mvapich2-2.2+mkl-11.3/espresso-5.1.r11289-pybeef/bin
  pseudo dir          : /gpfs/pace1/project/chbe-medford/medford-share/data/pseudos/SSSP_eff_PBE
  ase-espresso py git : c91b4c2-git



     Program PWSCF v.5.1rc2 starts on 27Feb2017 at 10: 1:36 

     This program is part of the open-source Quantum ESPRESSO suite
     for quantum simulation of materials; please cite
         "P. Giannozzi et al., J. Phys.:Condens. Matter 21 395502 (2009);
          URL http://www.quantum-espresso.org", 
     in publications or presentations arising from this work. More details at
     http://www.quantum-espresso.org/quote

     Parallel version (MPI), running on    16 processors
     K-points division:     npool     =       2
     R & G space division:  proc/nbgrp/npool/nimage =       8
     Reading input from pw.inp
     Message from routine read_cards :
     DEPRECATED: no units specified in CELL_PARAMETERS card

     Current dimensions of program PWSCF are:
     Max number of different atomic species (ntypx) = 10
     Max number of k-points (npk) =  40000
     Max angular momentum in pseudopotentials (lmaxx) =  3

     **************************************************************************
     Initializing libbeef V0.1.2 with the BEEF-vdW functional.
     Citation: Wellendorff et al., PRB 85, 235149 (2012).
     **************************************************************************


     IMPORTANT: XC functional enforced from input :
     Exchange-correlation      = BEEF-VDW ( 1  4 27 13 2)
     Any further DFT definition will be discarded
     Please, verify this is what you really want


     Subspace diagonalization in iterative solution of the eigenvalue problem:
     a serial algorithm will be used

 
     Parallelization info
     --------------------
     sticks:   dense  smooth     PW     G-vecs:    dense   smooth      PW
     Min          72      30     10                 8346     2112     424
     Max          73      31     11                 8371     2130     437
     Sum         583     241     85                66933    16981    3435
 


     bravais-lattice index     =            0
     lattice parameter (alat)  =       1.8897  a.u.
     unit-cell volume          =     785.8726 (a.u.)^3
     number of atoms/cell      =            3
     number of atomic types    =            1
     number of electrons       =        48.00
     number of Kohn-Sham states=           34
     kinetic-energy cutoff     =      29.3995  Ry
     charge density cutoff     =     293.9946  Ry
     convergence threshold     =      7.3E-08
     mixing beta               =       0.7000
     number of iterations used =            8  plain     mixing
     Exchange-correlation      = BEEF-VDW ( 1  4 27 13 2)
     nstep                     =           50


     celldm(1)=   1.889726  celldm(2)=   0.000000  celldm(3)=   0.000000
     celldm(4)=   0.000000  celldm(5)=   0.000000  celldm(6)=   0.000000

     crystal axes: (cart. coord. in units of alat)
               a(1) = (   2.842569   0.000000   0.000000 )  
               a(2) = (   1.421285   2.461737   0.000000 )  
               a(3) = (   0.000000   0.000000  16.641896 )  

     reciprocal axes: (cart. coord. in units 2 pi/alat)
               b(1) = (  0.351794 -0.203109  0.000000 )  
               b(2) = (  0.000000  0.406217  0.000000 )  
               b(3) = (  0.000000  0.000000  0.060089 )  


     PseudoPot. # 1 for Pt read from file:
     /gpfs/pace1/project/chbe-medford/medford-share/data/pseudos/SSSP_eff_PBE/Pt.UPF
     MD5 check sum: f09d6de1a584b5a045c4fc126da2d0c4
     Pseudo is Ultrasoft + core correction, Zval = 16.0
     Generated by new atomic code, or converted to UPF format
     Using radial grid of  985 points,  6 beta functions with: 
                l(1) =   0
                l(2) =   0
                l(3) =   1
                l(4) =   1
                l(5) =   2
                l(6) =   2
     Q(r) pseudized with  8 coefficients,  rinner =    1.300   1.300   1.300
                                                       1.300   1.300

     vdW kernel table read from file vdW_kernel_table
     MD5 check sum: 88c60d17101ec99b63477f765c8de84d

     atomic species   valence    mass     pseudopotential
        Pt1           16.00   195.08000     Pt( 1.00)

     12 Sym. Ops., with inversion, found ( 6 have fractional translation)



   Cartesian axes

     site n.     atom                  positions (alat units)
         1           Pt1 tau(   1) = (   1.4212846   0.8205791   6.0000000  )
         2           Pt1 tau(   2) = (   2.8425693   1.6411581   8.3209481  )
         3           Pt1 tau(   3) = (   0.0000000   0.0000000  10.6418962  )

     number of k points=    10  Fermi-Dirac smearing, width (Ry)=  0.0073
                       cart. coord. in units 2pi/alat
        k(    1) = (   0.0000000   0.0000000   0.0000000), wk =   0.0312500
        k(    2) = (   0.0000000   0.0507772   0.0000000), wk =   0.1875000
        k(    3) = (   0.0000000   0.1015543   0.0000000), wk =   0.1875000
        k(    4) = (   0.0000000   0.1523315   0.0000000), wk =   0.1875000
        k(    5) = (   0.0000000  -0.2031086   0.0000000), wk =   0.0937500
        k(    6) = (   0.0439743   0.0761657   0.0000000), wk =   0.1875000
        k(    7) = (   0.0439743   0.1269429   0.0000000), wk =   0.3750000
        k(    8) = (   0.0439743  -0.2284972   0.0000000), wk =   0.3750000
        k(    9) = (   0.0879486  -0.2538858   0.0000000), wk =   0.1875000
        k(   10) = (   0.0879486  -0.2031086   0.0000000), wk =   0.1875000

     Dense  grid:    66933 G-vectors     FFT dimensions: (  30,  30, 180)

     Smooth grid:    16981 G-vectors     FFT dimensions: (  20,  20, 120)

     Largest allocated arrays     est. size (Mb)     dimensions
        Kohn-Sham Wavefunctions         0.16 Mb     (     304,   34)
        NL pseudopotentials             0.25 Mb     (     304,   54)
        Each V/rho on FFT grid          0.32 Mb     (   20700)
        Each G-vector array             0.06 Mb     (    8369)
        G-vector shells                 0.02 Mb     (    2588)
     Largest temporary arrays     est. size (Mb)     dimensions
        Auxiliary wavefunctions         0.63 Mb     (     304,  136)
        Each subspace H/S matrix        0.28 Mb     (     136,  136)
        Each <psi_i|beta_j> matrix      0.03 Mb     (      54,   34)
        Arrays for rho mixing           2.53 Mb     (   20700,    8)

     Initial potential from superposition of free atoms
     Check: negative starting charge=   -0.565917

     starting charge   46.49997, renormalised to   48.00000

     negative rho (up, down):  5.842E-01 0.000E+00


     ************************************************************************
     *
     * You are using vdW-DF for exchange-correlation in this calculation.
     * Please cite the following three references that made this development
     * possible:
     *
     *   M. Dion, H. Rydberg, E. Schroder, D. C. Langreth, and
     *   B. I. Lundqvist, Phys. Rev. Lett. 92, 246401 (2004).
     *
     *   T. Thonhauser, V. R. Cooper, S. Li, A. Puzder, P. Hyldgaard, and
     *   D. C. Langreth, Phys. Rev. B 76, 125112 (2007).
     *
     *   G. Roman-Perez and J. M. Soler, Phys. Rev. Lett. 103, 096102 (2009).
     *
     *
     * If you are using vdW-DF2, please also cite:
     *
     *   K. Lee, E. D. Murray, L. Kong, B. I. Lundqvist, and
     *   D. C. Langreth, Phys. Rev. B 82, 081101(R) (2010).
     *
     *
     * If you are calculating the stress with vdW-DF, please also cite:
     *
     *   R. Sabatini, E. Kucukbenli, B. Kolb, T. Thonhauser, and
     *   S. de Gironcoli, J. Phys.: Condens. Matter 24, 424209 (2012).
     *
     ************************************************************************

     Carrying out vdW-DF run using the following parameters:

     Nqs =      20    Nr_points =    1024   r_max =   100.000
     q_mesh =
               0.00001000     0.04494208     0.09755937     0.15916263
               0.23128650     0.31572767     0.41458969     0.53033537
               0.66584808     0.82450364     1.01025438     1.22772762
               1.48234092     1.78043706     2.12944203     2.53805004
               3.01644009     3.57652955     4.23227104     5.00000000

     Gradients computed in reciprocal space

     ************************************************************************


     Starting wfc are   36 randomized atomic wfcs

     total cpu time spent up to now is       22.3 secs

     per-process dynamical memory:    17.8 Mb

     Self-consistent Calculation

     iteration #  1     ecut=    29.40 Ry     beta=0.70
     Davidson diagonalization with overlap
     ethr =  1.00E-02,  avg # of iterations =  6.0

     negative rho (up, down):  5.255E-01 0.000E+00

     total cpu time spent up to now is       27.7 secs

     total energy              =    -634.38449556 Ry
     Harris-Foulkes estimate   =    -637.84169618 Ry
     estimated scf accuracy    <       4.45278422 Ry

     iteration #  2     ecut=    29.40 Ry     beta=0.70
     Davidson diagonalization with overlap
     ethr =  9.28E-03,  avg # of iterations =  4.6

     negative rho (up, down):  5.330E-01 0.000E+00

     total cpu time spent up to now is       28.5 secs

     total energy              =    -633.74757035 Ry
     Harris-Foulkes estimate   =    -641.47185589 Ry
     estimated scf accuracy    <      23.33042058 Ry

     iteration #  3     ecut=    29.40 Ry     beta=0.70
     Davidson diagonalization with overlap
     ethr =  9.28E-03,  avg # of iterations =  3.8

     negative rho (up, down):  5.419E-01 0.000E+00

     total cpu time spent up to now is       32.4 secs

     total energy              =    -635.85431848 Ry
     Harris-Foulkes estimate   =    -638.37970705 Ry
     estimated scf accuracy    <      10.06888018 Ry

     iteration #  4     ecut=    29.40 Ry     beta=0.70
     Davidson diagonalization with overlap
     ethr =  9.28E-03,  avg # of iterations =  2.3

     negative rho (up, down):  5.449E-01 0.000E+00

     total cpu time spent up to now is       32.8 secs

     total energy              =    -636.97962555 Ry
     Harris-Foulkes estimate   =    -637.28006769 Ry
     estimated scf accuracy    <       1.92448623 Ry

     iteration #  5     ecut=    29.40 Ry     beta=0.70
     Davidson diagonalization with overlap
     ethr =  4.01E-03,  avg # of iterations =  1.4

     negative rho (up, down):  5.459E-01 0.000E+00

     total cpu time spent up to now is       33.2 secs

     total energy              =    -636.97828351 Ry
     Harris-Foulkes estimate   =    -637.04665595 Ry
     estimated scf accuracy    <       0.37688545 Ry

     iteration #  6     ecut=    29.40 Ry     beta=0.70
     Davidson diagonalization with overlap
     ethr =  7.85E-04,  avg # of iterations =  4.4

     negative rho (up, down):  5.454E-01 0.000E+00

     total cpu time spent up to now is       33.7 secs

     total energy              =    -636.99744428 Ry
     Harris-Foulkes estimate   =    -637.00844021 Ry
     estimated scf accuracy    <       0.03064574 Ry

     iteration #  7     ecut=    29.40 Ry     beta=0.70
     Davidson diagonalization with overlap
     ethr =  6.38E-05,  avg # of iterations =  3.7

     negative rho (up, down):  5.458E-01 0.000E+00

     total cpu time spent up to now is       34.2 secs

     total energy              =    -636.99301406 Ry
     Harris-Foulkes estimate   =    -637.01800679 Ry
     estimated scf accuracy    <       0.22299881 Ry

     iteration #  8     ecut=    29.40 Ry     beta=0.70
     Davidson diagonalization with overlap
     ethr =  6.38E-05,  avg # of iterations =  3.2

     negative rho (up, down):  5.460E-01 0.000E+00

     total cpu time spent up to now is       34.6 secs

     total energy              =    -637.00315262 Ry
     Harris-Foulkes estimate   =    -637.00366646 Ry
     estimated scf accuracy    <       0.00128450 Ry

     iteration #  9     ecut=    29.40 Ry     beta=0.70
     Davidson diagonalization with overlap
     ethr =  2.68E-06,  avg # of iterations =  3.8

     negative rho (up, down):  5.461E-01 0.000E+00

     total cpu time spent up to now is       35.1 secs

     total energy              =    -637.00338962 Ry
     Harris-Foulkes estimate   =    -637.00347251 Ry
     estimated scf accuracy    <       0.00047521 Ry

     iteration # 10     ecut=    29.40 Ry     beta=0.70
     Davidson diagonalization with overlap
     ethr =  9.90E-07,  avg # of iterations =  2.9

     negative rho (up, down):  5.461E-01 0.000E+00

     total cpu time spent up to now is       35.5 secs

     total energy              =    -637.00342921 Ry
     Harris-Foulkes estimate   =    -637.00343145 Ry
     estimated scf accuracy    <       0.00000913 Ry

     iteration # 11     ecut=    29.40 Ry     beta=0.70
     Davidson diagonalization with overlap
     ethr =  1.90E-08,  avg # of iterations =  2.0

     negative rho (up, down):  5.462E-01 0.000E+00

     total cpu time spent up to now is       35.9 secs

     total energy              =    -637.00342983 Ry
     Harris-Foulkes estimate   =    -637.00343074 Ry
     estimated scf accuracy    <       0.00000851 Ry

     iteration # 12     ecut=    29.40 Ry     beta=0.70
     Davidson diagonalization with overlap
     ethr =  1.77E-08,  avg # of iterations =  1.0

     negative rho (up, down):  5.462E-01 0.000E+00

     negative rho (up, down):  5.462E-01 0.000E+00

     negative rho (up, down):  5.462E-01 0.000E+00

     negative rho (up, down):  5.462E-01 0.000E+00

     negative rho (up, down):  5.462E-01 0.000E+00

     negative rho (up, down):  5.462E-01 0.000E+00

     negative rho (up, down):  5.462E-01 0.000E+00

     negative rho (up, down):  5.462E-01 0.000E+00

     negative rho (up, down):  5.462E-01 0.000E+00

     negative rho (up, down):  5.462E-01 0.000E+00

     negative rho (up, down):  5.462E-01 0.000E+00

     negative rho (up, down):  5.462E-01 0.000E+00

     negative rho (up, down):  5.462E-01 0.000E+00

     negative rho (up, down):  5.462E-01 0.000E+00

     negative rho (up, down):  5.462E-01 0.000E+00

     negative rho (up, down):  5.462E-01 0.000E+00

     negative rho (up, down):  5.462E-01 0.000E+00

     negative rho (up, down):  5.462E-01 0.000E+00

     negative rho (up, down):  5.462E-01 0.000E+00

     negative rho (up, down):  5.462E-01 0.000E+00

     negative rho (up, down):  5.462E-01 0.000E+00

     negative rho (up, down):  5.462E-01 0.000E+00

     negative rho (up, down):  5.462E-01 0.000E+00

     negative rho (up, down):  5.462E-01 0.000E+00

     negative rho (up, down):  5.462E-01 0.000E+00

     negative rho (up, down):  5.462E-01 0.000E+00

     negative rho (up, down):  5.462E-01 0.000E+00

     negative rho (up, down):  5.462E-01 0.000E+00

     negative rho (up, down):  5.462E-01 0.000E+00

     negative rho (up, down):  5.462E-01 0.000E+00

     negative rho (up, down):  5.462E-01 0.000E+00

     negative rho (up, down):  5.462E-01 0.000E+00

     negative rho (up, down):  5.462E-01 0.000E+00

     negative rho (up, down):  5.462E-01 0.000E+00

     negative rho (up, down):  5.462E-01 0.000E+00

     total cpu time spent up to now is       39.6 secs

     End of self-consistent calculation

          k = 0.0000 0.0000 0.0000 (  2131 PWs)   bands (ev):

   -47.7221 -47.5496 -47.5496 -47.2819 -47.2819 -47.2805 -47.2805 -47.1318
   -47.1049  -3.3164  -1.6798  -1.1950   1.7678   1.8663   1.8663   2.1156
     2.1156   2.1597   2.3081   2.3081   3.6698   3.6698   4.2507   4.2507
     4.3946   4.8918   4.8918   6.0157   9.7518  10.6702  11.9295  14.9896
    15.1198  19.2733

          k = 0.0000 0.0508 0.0000 (  2140 PWs)   bands (ev):

   -47.7157 -47.5903 -47.5597 -47.3203 -47.3192 -47.2918 -47.2902 -47.1254
   -47.1033  -2.8165  -1.1831  -0.7350   1.4679   1.6318   1.7721   2.1966
     2.2109   2.3103   2.3663   2.6664   3.2477   3.5413   3.6038   4.1408
     4.2409   4.9082   5.4789   7.4631  10.0962  11.1312  12.2133  15.2630
    15.4916  19.6659

          k = 0.0000 0.1016 0.0000 (  2120 PWs)   bands (ev):

   -47.7020 -47.6861 -47.5838 -47.4143 -47.4064 -47.3152 -47.3129 -47.1115
   -47.0995  -1.6196  -0.3428   0.0516   0.7974   1.2767   1.8352   2.1267
     2.4490   2.5716   2.6248   3.1241   3.3478   3.6251   3.7768   4.2141
     4.4058   4.9347   6.6327   9.4851  11.1059  12.4611  13.1135  15.9799
    16.5053  17.3528

          k = 0.0000 0.1523 0.0000 (  2114 PWs)   bands (ev):

   -47.7801 -47.6943 -47.6078 -47.5069 -47.4863 -47.3386 -47.3358 -47.1012
   -47.0935  -0.8609  -0.4626  -0.0665   0.1812   1.3724   1.7773   2.3794
     2.4708   3.3276   3.6637   4.0432   4.4894   4.5719   4.7235   4.8512
     5.0404   5.2564   8.0015  11.3277  12.5200  12.8378  13.7604  14.4989
    14.9378  16.3208

          k = 0.0000-0.2031 0.0000 (  2128 PWs)   bands (ev):

   -47.8189 -47.6950 -47.6177 -47.5452 -47.5155 -47.3482 -47.3452 -47.0988
   -47.0894  -0.8114  -0.6221  -0.1777  -0.0746   1.2691   1.6153   2.2754
     2.8656   3.6626   3.8367   4.7553   4.8038   5.1195   5.3663   5.4265
     6.3763   7.8473   7.9243  10.5758  10.8217  11.8288  14.5222  15.2369
    15.3961  15.4963

          k = 0.0440 0.0762 0.0000 (  2127 PWs)   bands (ev):

   -47.7056 -47.6538 -47.5814 -47.3828 -47.3771 -47.3120 -47.3110 -47.1153
   -47.1007  -1.9292  -0.3863   0.0122   1.0131   1.2911   1.4864   2.0061
     2.0093   2.5874   2.8449   2.9720   3.3048   3.4709   3.7173   3.9727
     4.5929   4.7316   6.3622   8.9707  10.7717  12.0464  12.7998  15.8205
    16.2092  19.4026

          k = 0.0440 0.1269 0.0000 (  2122 PWs)   bands (ev):

   -47.7388 -47.6945 -47.6155 -47.4665 -47.4520 -47.3446 -47.3432 -47.1027
   -47.0967  -0.7702  -0.0334   0.2964   0.7669   1.1855   1.6238   2.0303
     2.2269   2.3643   2.7935   3.4022   3.6009   4.1669   4.6344   4.8249
     5.0687   5.3575   7.6383  10.9134  12.1286  13.6759  14.0353  14.7998
    16.0813  16.9839

          k = 0.0440-0.2285 0.0000 (  2104 PWs)   bands (ev):

   -47.7979 -47.6909 -47.6396 -47.5242 -47.5004 -47.3675 -47.3664 -47.0971
   -47.0905  -0.4521  -0.2910   0.0284   0.3816   1.2568   1.8076   1.9344
     2.6394   3.2377   3.5558   3.7882   4.3658   4.5124   4.8025   5.1545
     6.8921   7.6570   9.5234  10.6863  11.6022  12.9428  14.2528  14.3675
    15.8856  15.9626

          k = 0.0879-0.2539 0.0000 (  2089 PWs)   bands (ev):

   -47.7688 -47.6873 -47.6693 -47.4961 -47.4774 -47.3968 -47.3926 -47.0937
   -47.0935   0.0578   0.1225   0.6056   0.9501   1.2506   1.4244   2.1455
     2.2576   2.4687   2.4902   3.3996   3.5838   4.2034   4.7907   5.1813
     7.0256   7.8595   9.7943  12.2903  12.7741  12.8822  14.0301  14.3485
    15.2347  15.9733

          k = 0.0879-0.2031 0.0000 (  2090 PWs)   bands (ev):

   -47.7718 -47.7014 -47.6838 -47.4979 -47.4822 -47.4276 -47.4211 -47.0925
   -47.0899   0.1710   0.2657   0.6058   0.8356   1.3209   1.5882   2.0776
     2.3590   2.7036   2.8291   3.3085   3.8213   4.5537   4.5836   4.8984
     9.3545   9.4171  10.6105  10.6258  12.1611  12.4440  13.6777  14.7095
    16.1377  16.1473

     the Fermi energy is     4.9481 ev

!    total energy              =    -637.00343026 Ry
     Harris-Foulkes estimate   =    -637.00343028 Ry
     estimated scf accuracy    <          9.8E-09 Ry

     The total energy is the sum of the following terms:

     one-electron contribution =   -2245.62455394 Ry
     hartree contribution      =    1137.90052609 Ry
     xc contribution           =    -175.73007045 Ry
     ewald contribution        =     646.46560382 Ry
     smearing contrib. (-TS)   =      -0.01493579 Ry

     convergence has been achieved in  12 iterations
 
 BEEFens 2000 ensemble energies
             -0.115656989319811E+02
             -0.922828484790791E+00
             -0.329908525571728E+01
              0.882168076010525E+01
             -0.411900314878545E+01
             -0.419360427367339E+01
             -0.708168143139565E+01
             -0.176980199012192E+02
             -0.957556128945286E+01
             -0.100262901770159E+02
             -0.736496048026552E+01
             -0.657951956392284E-01
              0.583406375975933E+00
              0.152233290211427E+01
              0.702868450306546E+00
              0.927218122133419E+01
             -0.471272247437039E+01
             -0.512251033793326E+01
              0.338603041248521E+01
             -0.220846390192762E+02
              0.111422561698858E+02
             -0.546214992508970E+01
             -0.105345219046881E+01
             -0.230521727716993E+01
             -0.197924721350569E+01
             -0.190506713195916E+01
              0.175211149275286E+02
             -0.242546538289028E+01
             -0.232521337529926E+01
             -0.102454873194766E+02
              0.168570890692021E+02
             -0.420959168037825E+01
             -0.795735890629518E+01
              0.555145965622527E+01
             -0.582033498213718E+00
              0.309863921876514E+01
             -0.868330641276799E+00
              0.200911813565747E+01
              0.451643967106206E+01
             -0.212826656345353E+02
              0.106390886380202E+02
              0.233708130277840E+01
              0.239287053761231E+00
             -0.757300961156313E+01
              0.210696967934309E+01
             -0.242041588622803E+01
              0.840616655303359E+01
              0.744435293016596E+01
             -0.620113914851441E+01
             -0.585741261115328E+01
             -0.590860262410175E+01
             -0.631382536174565E+01
              0.133104686664020E+01
             -0.104271927752957E+02
              0.224971802033588E+01
              0.118572948131331E+02
              0.125185569208789E+02
              0.681153419625214E+01
              0.368491118060718E+01
              0.478789564506671E+01
              0.169990924475816E+02
              0.524943608918493E+01
             -0.111715266438650E+02
             -0.303407719349319E+01
             -0.463444937502356E+01
              0.129502960116428E+02
             -0.160878813063448E+02
             -0.125691298497942E+02
             -0.426039765197984E+01
             -0.925260501810499E-01
             -0.101610019855092E+02
              0.505462400265341E+01
              0.178021240175778E+01
              0.211243248349238E+01
             -0.719215608820549E+01
             -0.706363224790306E+01
             -0.104400913395208E+02
              0.837845060926932E+01
             -0.573622674285836E+01
              0.420133976342212E+01
             -0.500188437770166E+00
             -0.659952677120774E+01
             -0.126155212726271E+02
             -0.386032180898886E+01
             -0.252730364102868E+01
             -0.374036707213514E+01
              0.755683996707567E+01
              0.127222045930081E+02
             -0.781006499965394E+01
             -0.165627845506869E+02
             -0.418457612276123E+01
              0.227602353909319E+02
             -0.107646965474480E+02
              0.680297654453572E+01
             -0.200648866563441E+01
             -0.133406622790146E+02
              0.519997759024204E+01
              0.809142339860509E+01
             -0.338473116396138E+01
              0.735048052471606E+01
             -0.610676178361970E+01
             -0.926270254523757E+01
              0.168773898354942E+02
              0.942014874275179E+01
              0.681048492589591E+01
              0.310591765544358E+01
              0.361016150885136E+01
              0.168608838568169E+02
             -0.468925935815115E+01
              0.103548136503337E+01
             -0.284232528166889E+02
              0.431414080218519E+01
             -0.141776083368127E+02
              0.270155842655909E+01
              0.399585626459292E+01
             -0.644051909114935E+01
             -0.110427451611771E+02
              0.189696474247273E+01
             -0.558358881022838E+01
              0.655307416399906E+01
             -0.996639846566510E+01
              0.360234530408889E+00
             -0.716282937199425E+01
             -0.109956400511020E+01
             -0.872916981929997E+00
              0.245504795257381E+01
              0.137675752924821E+00
             -0.152851853617682E+01
              0.111539748580772E+02
              0.178994169956112E+02
              0.926785714002372E+01
              0.168201674284828E+02
             -0.243426038341609E+01
              0.343804500703861E+01
              0.109104313687888E+02
             -0.267413730865940E+01
             -0.144651382159484E+02
             -0.691658711782211E+01
             -0.966881059312956E+01
             -0.570053293174069E+01
              0.560085409168769E+01
             -0.233750810415223E+02
             -0.339640622501204E+01
              0.842513203737338E+01
             -0.766830927109044E+01
             -0.742275225514666E+01
              0.966070888035756E+01
              0.852752264543817E+01
             -0.636765121103410E+01
              0.197493610011462E+01
             -0.472725367144945E+01
              0.710558651848175E+01
              0.157596693718376E+01
              0.418026285688035E+01
             -0.172683174433154E+02
             -0.979970325824994E+01
             -0.151068488964989E+01
              0.115287438251167E+01
             -0.736837926536515E+01
              0.206586175147910E+02
             -0.463210617486183E+01
             -0.691793436583243E+01
              0.841830675547666E+01
             -0.101061785874262E+02
             -0.646311006939309E+01
              0.601225044101551E+01
              0.207661899695855E+01
              0.224378675733340E+01
              0.165854518372204E+01
             -0.241197577046563E+01
              0.424501304137749E+01
              0.118757728781768E+02
             -0.669069699591525E+01
              0.344820037822709E+01
              0.179350840219691E+02
              0.635320737966488E+01
             -0.156999285293639E+01
             -0.348580399641766E+01
              0.301381009659231E+02
             -0.297754458671776E+01
              0.671456150019723E+01
              0.381709247679301E+01
              0.779379047698116E+01
              0.182418616666804E+02
              0.106237584733209E+02
             -0.117056725882166E+01
              0.420263877730514E+01
              0.939390516832287E+01
              0.805592186873486E+01
             -0.104684911504311E+02
              0.181476803189535E+02
             -0.161085661525129E+02
             -0.442088434550724E+01
              0.119539711704999E+02
              0.427097653313895E+00
              0.140067031751437E+01
              0.724385278096112E+01
              0.513125077724868E+01
              0.721230566161105E+01
             -0.129190643828858E+02
              0.952277056874735E+00
             -0.544202790848908E+01
             -0.263521902538279E+01
             -0.151720477017932E+00
             -0.115944159801465E+01
             -0.810540139700691E+00
              0.163629312076739E+02
             -0.177422747016491E+01
             -0.590318465352041E+01
             -0.783608583618302E+00
              0.254160043164368E+01
             -0.116300043231672E+02
             -0.737580205404143E+01
             -0.742913399290641E+01
             -0.124744547183199E+02
             -0.369868341052442E+01
             -0.858195471662717E+01
              0.381340614440128E+01
             -0.667738777381043E+00
             -0.186893891935506E+01
             -0.191166586618677E+01
              0.149946091183037E+01
             -0.537288357407912E+01
              0.128262328639360E+02
             -0.153906482552709E+02
             -0.287338030311448E+01
             -0.373795971377990E+01
              0.345279439409192E+01
              0.305942193249214E+01
             -0.948854294102671E+01
             -0.419470504392086E+01
              0.844921586576699E+01
             -0.523832743070369E+01
              0.305311948486655E+01
              0.774418625553086E+01
             -0.609602849136593E+00
              0.231841155917498E+02
             -0.534014240467835E+01
             -0.703380632754671E+01
              0.157005299903693E+01
             -0.428569211126495E+01
              0.106026665756233E+02
             -0.613392598863832E+01
              0.155414307190838E+01
              0.133247456959662E+02
             -0.270081811961310E+01
              0.237003297273317E+02
              0.251109830584631E+02
             -0.129329770858976E+02
              0.112457340112522E+02
              0.278582977392666E+01
             -0.100876721507544E+02
              0.443114260094614E+01
              0.604172153632467E+01
              0.699246557868695E+01
              0.746593570949884E+00
              0.180531062250904E+01
              0.130841215680221E+02
             -0.462160589749737E+01
              0.303246218453862E+01
              0.152875891815631E+02
             -0.760699755835698E+01
             -0.216487471221289E+01
              0.960999291684693E+01
              0.564255555315801E+01
              0.159627835480552E+02
              0.412334113787611E+01
              0.723387181878834E+00
              0.552613775902209E+01
              0.738565987802919E+01
             -0.804020613967870E+01
              0.152233920260215E+00
              0.168047541852713E+01
              0.233483957052565E+01
              0.390950130770996E+01
             -0.108068473108474E+02
              0.749173373685048E+01
             -0.915638744179836E+01
             -0.606576574608084E+01
              0.245879653335323E+01
             -0.349536020556079E+01
              0.105025259334665E+02
             -0.604128571824677E+01
              0.528289340813544E+01
              0.696825884212299E+01
              0.163523108031681E+02
              0.110475076609790E+02
              0.898823510693329E+01
             -0.317868323439976E+01
             -0.803903520746132E+00
             -0.596560156382310E+01
              0.144622739997582E+02
              0.159482090785564E+02
              0.713950183776694E+01
             -0.386543394897441E+01
              0.102132831137785E+02
             -0.304896347223848E+01
              0.482986756880300E+01
              0.119103955442109E+02
              0.499761544944590E+00
             -0.200683741529892E+01
             -0.602558728481216E+01
             -0.921500124280662E+01
              0.188287851740845E+02
              0.764656698533260E+01
             -0.108678265895384E+02
             -0.253237754859353E+01
              0.556102832757259E+01
             -0.222790240061724E+01
              0.120760344720131E+02
              0.322269871612889E+01
              0.159979412863804E+02
              0.459887980291337E+01
             -0.652512779252919E+01
              0.575591657721058E+01
             -0.923417364745134E+00
             -0.707137036829739E+01
              0.315308724412117E+01
              0.463663044281904E+01
              0.170637858316862E+02
              0.157292162067587E+02
              0.102219165132662E+02
              0.147806078372624E+02
              0.886994958379532E+00
             -0.534291959056083E+01
              0.316188470488287E+01
             -0.728271519638023E+01
             -0.921132507011976E+01
             -0.119385822329775E+02
             -0.499699448660382E+01
             -0.213503775279550E+02
             -0.535576916313167E+01
             -0.163146396361493E+02
              0.360641884112515E+01
             -0.915652319084304E+01
              0.742251864599202E+01
             -0.178749318902215E+02
             -0.650354606414450E+01
              0.113750537118289E+02
              0.456955092878454E+01
             -0.162308264179121E+02
              0.131209947951832E+02
             -0.491968367926158E+01
              0.101525480671298E+02
             -0.607287769944703E+01
             -0.152445644741178E+02
              0.264933212881350E+01
             -0.124007763347757E+02
             -0.374745336704120E+01
              0.572325694143556E+00
              0.886892636539691E+01
              0.247158751537198E+02
             -0.939445843099517E+01
             -0.759808267329880E+01
              0.250276927678087E+00
             -0.270177155676544E+01
             -0.162584201850170E+02
             -0.116404852862515E+02
              0.106050579082702E+02
             -0.579679555819226E+01
              0.293228260837222E+01
             -0.983447849118924E+01
             -0.243331280449384E+01
             -0.839459860617671E+01
              0.108978286116401E+02
              0.431762698887536E+01
             -0.452565615404950E+01
             -0.195755410397304E+01
              0.122226467606754E+01
             -0.147678532384863E+01
              0.889297833941983E+01
             -0.505018258848250E+01
             -0.376470827954051E+00
              0.598869500390758E+01
              0.408500429859674E+01
             -0.256515107613343E+01
              0.309813864914265E+02
              0.968959432766505E+01
              0.742574868229589E+00
              0.291841027632071E+01
             -0.116471988819219E+02
              0.593442424348773E+01
             -0.143959333487999E+02
             -0.508826936039969E+01
             -0.105493955279721E+02
             -0.374345245411567E+01
              0.108305442087030E+02
             -0.106458669156271E+02
              0.269359449291856E+01
             -0.264715194633609E+00
              0.105218168203189E+01
             -0.812830199223467E+01
             -0.911801779034334E+01
              0.550764563641550E+00
             -0.947378225544882E+01
             -0.524486236909824E+01
             -0.827352061371817E+01
             -0.225202660019958E+01
             -0.699973678232583E+01
             -0.103011558374009E+02
              0.470038696253146E+01
             -0.450589951247095E+01
              0.323705638219245E+01
              0.207332495511590E+01
             -0.140573337125643E+02
             -0.110826270441130E+02
             -0.701601356457276E+01
              0.763779387776123E+01
              0.329053732483146E+00
             -0.128866399369006E+02
              0.108529297701712E+02
             -0.814727831761550E+01
              0.103169682749393E+02
             -0.530416869904337E+01
             -0.927439634042219E+01
              0.655756128530258E+01
             -0.135923975880767E+02
             -0.769649027523340E+01
              0.129067518095583E+02
              0.363043595595647E+01
             -0.633121258626622E+01
              0.933262060054143E+01
             -0.307651199299889E+01
             -0.626770914120715E+01
             -0.607283603291913E+01
             -0.967080661466079E+01
              0.387682817799277E+01
             -0.176998515800674E+02
             -0.168167075293678E+02
             -0.128228241391234E+01
             -0.591437734815081E+01
             -0.105694698464179E+02
              0.143580690987970E+02
              0.257550080981019E+02
             -0.730899190268490E+01
             -0.362212797341996E+00
             -0.126417182165525E+02
              0.129034829139549E+02
              0.337872470320788E+01
             -0.257573834395546E+01
             -0.806276097236798E+01
              0.334948284031333E+01
             -0.123793885326302E+02
             -0.351547424361750E+01
             -0.182174934072056E+02
              0.647978710897910E+01
              0.346772044035899E+01
              0.611743229413833E-01
             -0.613110636265716E+00
             -0.565053798911083E+01
             -0.111289084886056E+01
              0.242924163154174E+02
             -0.391222523147621E+01
             -0.801443916619101E+01
             -0.129925726021491E+02
              0.197785450630762E+01
             -0.635060081272181E+01
              0.863718075809373E+00
              0.544093120912585E+01
              0.123338101310383E+01
              0.530652499083000E+01
              0.201052711174413E+01
              0.121928187080975E+02
              0.680557681454427E+01
             -0.625440241871828E+01
              0.684583850301006E+01
              0.730822933102738E+01
              0.240893660508721E+01
              0.883108913730238E+01
             -0.402412597258384E+01
              0.147231844834865E+02
              0.300191280941241E+01
             -0.560697204557602E+01
             -0.106251482761762E+01
             -0.350332631322343E+01
              0.515569265008766E+01
             -0.588372600697057E+01
              0.331992778672053E+00
             -0.160579281059151E+01
              0.164724204578845E+02
              0.996728163428796E+01
             -0.143661730849427E+02
             -0.226157041708944E+00
             -0.110827846708064E+02
             -0.375154328848939E+01
             -0.451910891283606E+01
              0.102026809284057E+01
             -0.614093097995710E+00
             -0.449783035623059E+01
              0.125176390937426E+01
             -0.127587729379721E+01
             -0.252468287307671E+01
              0.172755956869292E+02
              0.417633464124609E+01
             -0.152078585642870E+02
             -0.910074398140898E+01
              0.176187293847933E+02
              0.507849666162446E+01
             -0.180683278876286E+01
              0.207314828209503E+02
             -0.475817011558348E+01
             -0.242731558029456E+01
             -0.745659763161797E+00
              0.207228882971019E+01
              0.484746160465662E+01
              0.107193815159138E+01
              0.569094337249398E+01
             -0.389131928661656E+01
             -0.540027201962357E+01
             -0.791350327552476E+01
             -0.947857279714913E+01
              0.916299981199526E+01
              0.272243672694065E+01
              0.739197211548830E+01
              0.262078849848515E+01
              0.167759820696528E+02
              0.332627307938137E+01
             -0.161138717008062E+02
             -0.639880556756754E+01
              0.288594325958289E+01
             -0.570909034956613E+01
              0.120467051642084E+02
             -0.230800379917108E+01
              0.363710993343225E+01
              0.966222065414751E+01
             -0.144461002052770E+02
              0.292567124151013E+02
              0.356068758554855E+01
              0.517278915227152E+01
              0.667188541109072E+01
              0.181650677924986E+01
             -0.730569738963766E+00
              0.725952462485355E+01
             -0.628381113657751E+01
              0.152388029229557E+02
              0.130938122227996E+02
             -0.764392615973723E+01
              0.278160245860388E+01
              0.135908304296696E+02
             -0.476505921020284E+01
              0.286768090242970E+01
              0.898516114155374E+01
              0.893348778142297E+01
             -0.153661470609490E+02
             -0.294816566263913E+01
             -0.759380888978976E+01
             -0.641971786574459E+00
             -0.459612360701557E+00
             -0.153485036312786E+01
             -0.422559608573177E+01
             -0.493906223536419E+01
              0.602977566699224E+00
              0.258681377437193E+01
              0.104725675196834E+02
             -0.758916578818933E+01
              0.652044582823362E+01
              0.834421414573185E+01
             -0.447473520876679E+01
              0.177762634130695E+02
             -0.135803152550840E+02
             -0.205514127635569E+02
             -0.840292857093552E+00
             -0.779006248604247E+00
              0.816583176326020E+00
              0.148117680719267E+02
             -0.213717767567893E+01
              0.769577719150490E+01
              0.842913760288110E+01
              0.775181649570465E+01
             -0.129060540912300E+01
              0.131850873554834E+02
             -0.284693609960258E+01
             -0.595564861552089E+01
             -0.973616852813855E+01
              0.567273187634445E+00
              0.819711296828217E+01
             -0.165191534872157E+01
              0.832756498881150E+01
             -0.813451072182836E+00
              0.130735668688863E+02
              0.458316383648367E+01
              0.173654931192771E+01
             -0.168288247055078E+01
              0.668228101807591E+01
              0.773061716468698E+01
              0.476902271679431E+01
             -0.203451994556332E+00
             -0.103620013231792E+02
              0.553785468928558E+01
              0.377858951502414E+01
              0.801715449479018E+01
              0.618997954908241E+01
              0.714166205509163E+01
             -0.124271234189160E+01
              0.444209815932386E+01
             -0.518220158099899E+01
             -0.354226277263280E+00
             -0.111801775591920E+02
             -0.676852305758168E+01
              0.775929629427758E+01
             -0.180287468247421E+02
              0.608188334558851E+01
              0.335590401392659E+01
              0.161455094080865E+02
             -0.654676351710540E+01
              0.566304121787853E+01
             -0.280824586181072E+01
             -0.928579173363384E+01
             -0.154717653161156E+02
             -0.699189681781942E+00
             -0.168540893148355E+02
              0.412001543720906E+01
             -0.478255159451563E+01
              0.589801023502073E+01
              0.355600406625263E+01
             -0.423602983007659E+01
             -0.424181516329577E+01
              0.774688275112771E+01
             -0.106360315523431E+02
             -0.202796134197615E+01
             -0.394945923291965E+01
              0.361460754573292E+01
             -0.228272152421980E+01
              0.125473634853886E+01
             -0.422803355976244E+01
              0.111989783249457E+02
             -0.747463683085964E+01
              0.194685962491269E+01
              0.111617686549211E+02
             -0.610167493957843E+01
              0.326310812739948E+00
             -0.177919506291083E+01
             -0.139077023087531E+02
             -0.104572420106415E+02
             -0.203919269039245E+01
              0.467445427161998E+01
              0.575109777814612E+01
              0.938261307292734E+00
             -0.111332169858770E+01
              0.403929741522334E+01
             -0.914788450264135E+01
              0.740461040406501E+00
             -0.997559858040017E+01
             -0.559630803100200E+01
              0.922185848075171E+01
             -0.599665325484321E+01
              0.117965476887212E+02
             -0.328353849294405E+01
              0.762998787846424E+01
              0.471103381644266E+01
             -0.121193514415895E+02
             -0.624035620457302E+01
              0.166513727614521E+01
             -0.678794581556076E+01
             -0.686235371609459E+01
             -0.163501131478237E+02
             -0.110352423947266E+02
             -0.101595963783508E+02
             -0.836275102102028E+01
              0.256614049962884E+00
              0.195228991751834E+01
             -0.596421463162656E+00
              0.289595619427838E+01
             -0.110526120338059E+02
              0.229821142417173E+01
              0.329817835170591E+01
             -0.131414592527893E+02
             -0.133954923170217E+02
             -0.761568537231329E+01
             -0.333205416389101E+01
              0.406396078345138E+01
              0.680823062182640E+00
             -0.946777000698262E+01
              0.794072518079258E+01
             -0.353523034220096E+01
              0.101615973442011E+02
             -0.173276338958436E+02
              0.109948489488161E+02
              0.359459098228877E+00
             -0.685493596115388E+01
             -0.534300215598074E+01
              0.892122291313868E+00
              0.792635727515990E+01
             -0.146272065125061E+02
             -0.295722993126436E+01
             -0.375406554738584E+01
              0.101494484864756E+02
              0.163487223131368E+02
             -0.183499256655867E+02
              0.185894876083872E+02
              0.986978663301662E+01
             -0.145361644985538E+02
             -0.755686256439189E+01
              0.142949544987063E+02
              0.121437050690664E+02
             -0.271506056338876E+01
             -0.870593387296509E+00
              0.147489303938524E+01
              0.127506641700449E+02
             -0.989929879563181E+01
              0.369254678596624E+01
             -0.100518889308779E+01
              0.715925478287676E+01
             -0.145244721159901E+02
             -0.175632050113711E+01
             -0.713252150027542E+01
              0.910582222847404E+01
              0.905595821454424E+01
             -0.165357292642896E+02
             -0.986086833355651E+01
             -0.498525847435491E+01
             -0.632520570893490E+01
             -0.288392101052960E+01
             -0.541089763634254E+01
              0.809056915230160E+01
              0.852991845167134E+01
             -0.180269238750766E+01
             -0.813593022922602E+01
             -0.159751798451386E+02
              0.826905280117577E+01
             -0.103561570015144E+02
             -0.551517330778393E+01
              0.115121799025410E+01
             -0.601561655042223E+01
             -0.837360080758664E+01
             -0.440446918749669E+01
             -0.691454631910136E+01
             -0.565375417007684E+01
             -0.964625168472833E+01
              0.116708895419812E+02
              0.131965531909204E+02
             -0.288653907661825E+00
             -0.532174675513028E+01
             -0.687381614789018E+00
              0.798625991329266E+01
             -0.175585374053960E+02
             -0.375373975544208E+01
              0.104743832687851E+02
              0.119623632240822E+02
             -0.431254783099588E+01
              0.244944444343022E+01
              0.977059645676192E+01
              0.325825913977720E+01
             -0.251826891041572E+01
             -0.824473762430243E+01
              0.485977467395028E+01
             -0.701312742244883E+01
             -0.402059902937536E+01
             -0.331993604219407E+01
             -0.396718085913193E+01
              0.327668919227851E+01
              0.153495174787339E+02
              0.317335611679518E+00
              0.101619734953614E+01
             -0.173484064087035E+02
             -0.308807017543310E+01
             -0.760192672804089E+01
              0.167022468231373E+01
             -0.731720640295200E+01
              0.140389106574269E+02
              0.161870697718713E+02
              0.308768731436287E+01
             -0.208299201561775E+01
              0.244354033490382E+01
              0.584057516812423E+01
             -0.918508610690831E+01
             -0.115269679696381E+01
              0.169873714058025E+01
              0.337073261248815E+01
              0.109319598608741E+02
              0.922331828974897E+01
             -0.426702975617536E+01
              0.668657394158106E+01
             -0.182557220683671E+02
             -0.104786276536118E+01
              0.167808899828932E+02
              0.212989016114639E+01
              0.573499340574458E+00
              0.626110957894447E+01
             -0.532134845704693E+01
              0.192698728471070E+02
             -0.183288362595410E+01
              0.173381340936700E+02
              0.699312756383906E+01
             -0.743336064506894E+01
              0.597477230926449E+01
             -0.638795831229036E+01
             -0.130556529776201E+02
             -0.120426911503949E+01
             -0.109227265989600E+02
             -0.108019408841921E+02
             -0.115359119251796E+01
              0.513698434678508E+01
             -0.511679467807866E+00
             -0.748655661289385E+01
              0.162280750274081E+01
             -0.147193421735593E+02
             -0.202996268270821E+01
             -0.165005562868192E+02
              0.112595008628665E+02
             -0.415241099683595E+00
             -0.952351854674590E+01
             -0.490904977113088E+01
              0.372859001856477E+01
             -0.547493539319231E+01
             -0.930592240191469E+01
              0.164411096505913E+02
             -0.403182772695322E+01
             -0.996743370037643E+01
              0.454208198758741E+01
             -0.120220000747918E+01
              0.914887367588866E+01
              0.454796907459780E+00
              0.255905637542590E+01
              0.191417692864120E+02
             -0.449184972436362E+01
             -0.669644344779328E+01
             -0.609597960539494E+01
             -0.112008794360706E+02
             -0.647111019912015E+01
              0.543478587392745E+01
              0.320322708313788E+01
              0.428851551133449E+01
              0.151876786199365E+02
              0.137349978381927E+00
              0.288744221882600E+01
             -0.135531688989919E+02
              0.208783088022543E+00
             -0.551440854110962E+01
             -0.546899227444035E+01
              0.177151495706551E+01
              0.661707581062997E+01
              0.741193935112409E+01
              0.468547526559090E+00
              0.121480174901178E+01
              0.625450663850891E+01
              0.849961815895711E+01
             -0.457497988984365E+01
             -0.269503255500891E+01
              0.611202729299819E+00
             -0.474990837428172E+01
             -0.244448890817793E+01
             -0.364193536565426E+01
              0.141248143188802E+02
              0.125060555449326E+02
             -0.219534238016047E+01
              0.177735331537551E+01
             -0.218199554206564E+00
             -0.311380197340914E+01
              0.597126057425886E+01
             -0.196576833704094E+01
              0.704958553494384E+01
             -0.111078077689307E+02
              0.406912834802235E+01
             -0.236941835176458E+01
             -0.114216868313924E+02
             -0.568283043655339E+01
              0.562977901002287E+01
             -0.168214632093531E+02
              0.799466465805756E+01
              0.995288085576212E+01
             -0.117211962118219E+01
             -0.104557525218560E+01
             -0.721891828280548E+00
              0.452719226213169E+01
             -0.634654890917160E+01
              0.736960214567148E+01
              0.541280115051208E+01
             -0.222041236704537E+02
             -0.621815866333098E+01
              0.456826124107200E+01
             -0.180922446877299E+01
              0.642429201842310E+01
             -0.115080910148262E+02
              0.492826548447027E+00
             -0.832741954252184E+01
             -0.235793522179815E+02
              0.150837285384777E+02
             -0.119578041591919E+02
             -0.111485489544975E+02
              0.192461512488136E+01
              0.249480448976484E+02
              0.448089615663960E-01
             -0.340099576631108E+01
              0.234050351535728E-01
             -0.148813969939644E+01
             -0.181097456602948E+02
             -0.125792501429114E+02
              0.155601444059407E+02
             -0.445008490946648E+00
             -0.841000769464272E+01
              0.111105548923099E+02
             -0.669668929100370E+01
              0.780510309194830E+01
              0.109790461550805E+02
             -0.127402372212153E+02
             -0.455150783902415E+01
             -0.683023930880596E+01
             -0.199036680539953E+01
             -0.400522622244397E+01
             -0.550895930507508E+00
              0.277909521177145E+01
             -0.623565622723592E+01
              0.608635808380557E+01
              0.124502886337755E+02
             -0.420036814213242E+01
             -0.296019541665588E+01
              0.215646651756816E+01
              0.110772849661770E+02
              0.943472037953115E+01
             -0.743261528811487E+00
              0.375045783990387E+00
             -0.172158565314028E+00
             -0.970501430733457E+01
              0.718427173772393E+01
             -0.503035133415280E+01
              0.301684776568344E+01
             -0.353617766813679E+01
              0.656281657183212E+01
              0.301921676643468E+01
             -0.152872522260435E+02
             -0.597148198036757E+01
             -0.151695952089681E+02
             -0.566281760107560E+01
              0.154070004627049E+01
             -0.309862594102955E+01
              0.572710345099347E+01
             -0.574718294914742E+01
              0.184234661068970E+00
              0.206242927828637E+01
              0.156888109576694E+02
              0.826121527058712E+01
             -0.441553745851552E+01
              0.852182257696469E+00
              0.190381784250530E+01
              0.762253860826672E+01
             -0.132079680345100E+00
              0.967335351321087E+01
              0.545122485560920E+01
              0.172197215019112E+02
              0.103306333148527E+01
              0.141882168375264E+02
             -0.517916812623912E+01
             -0.789214495057953E+01
              0.229696365159296E+01
              0.679668640345767E+00
              0.635823054976240E+01
              0.409586802465697E+00
             -0.330452114637100E+01
              0.444182047505072E+01
             -0.838529984814933E+01
             -0.959345806855214E+01
              0.145656788951357E+02
             -0.170084388437203E+01
             -0.930280374451720E+01
             -0.103571766587191E+00
             -0.287998226388007E+01
              0.536842248613768E+01
              0.665404632660818E+01
             -0.399853530162855E+01
             -0.353116108401693E+00
             -0.565720357894639E+01
             -0.621982320910401E+01
             -0.601274944326295E+01
             -0.187811446933837E+02
             -0.175263119370165E+01
             -0.140195040267824E+02
             -0.106547303170506E+02
             -0.916636083594098E+01
              0.260844192121147E+01
             -0.790579998118737E+01
              0.325369903226459E+01
             -0.108112558280211E+02
             -0.258294930105762E-01
             -0.789717158473567E+01
              0.106614789074972E+01
              0.172148665378693E+01
              0.483267938358978E+01
             -0.350629148459458E+01
             -0.334254872664484E+01
              0.487758293930237E+01
              0.120438607160488E+02
              0.608678910491136E+01
              0.119839162894388E+01
             -0.131531853127156E+02
             -0.200567687567327E+01
             -0.647016722859306E+01
             -0.121800555222084E+02
              0.876944031885236E+01
             -0.657259055668887E+01
             -0.820874038929070E+00
             -0.389465064362015E+01
             -0.203581510564879E+02
              0.987534928048551E+01
             -0.288343408364358E+01
              0.844958607905376E+01
             -0.140192839474884E+02
              0.126334441480194E+02
              0.764563393565368E+00
             -0.663898199155304E+01
              0.394512827219728E+00
             -0.542850798732134E+01
             -0.148063557333264E+02
              0.299152397135208E+01
              0.401940949661255E+01
              0.974294479218997E+00
             -0.678290736720862E+01
             -0.198904322834112E+01
              0.272439048228152E+01
              0.527082006452669E+01
              0.128325717197046E+02
              0.554927215373198E+01
             -0.426925286824820E+01
              0.156108706243044E+02
              0.637814198411095E+01
              0.673219045035569E+01
             -0.317211724042680E+01
              0.569543414002802E+01
              0.256758791786283E+01
             -0.123986580177728E+02
             -0.387444201023015E+01
             -0.747520086728544E+01
             -0.512798062107359E+01
             -0.151615821260295E+01
             -0.395660601755468E+01
             -0.611304155888212E+01
             -0.228723215321813E+02
             -0.589122881084886E+01
              0.360742493651944E+01
              0.122001657888924E+01
              0.734168461591523E+00
              0.102778894987089E+02
              0.412748465678252E+01
              0.655115511940355E+01
             -0.831972830303144E+01
              0.939819847382228E+01
             -0.986645670545415E+01
             -0.155965365418129E+02
              0.290237755876572E+01
             -0.696546823229328E+01
             -0.843093840268008E+01
             -0.312315553861062E+02
             -0.242719665181927E+01
              0.154113510169995E+02
              0.101642609140805E+02
             -0.236668760367797E+01
             -0.185303515419423E+01
              0.459130624996111E+01
              0.131575068076816E+02
             -0.830337407457253E+01
             -0.184150341878015E+01
             -0.599239372374996E+01
             -0.747470145672546E+01
             -0.690178187499292E+01
              0.387046442588506E+01
              0.152277248540644E+02
             -0.130227385282953E+02
             -0.100977911632346E+02
             -0.135257020935583E+00
             -0.138703861945764E+01
             -0.316715523301991E+01
             -0.188597415482305E+02
              0.981621158410150E+01
              0.560528872112525E+01
              0.106632024943711E+01
              0.986882439761582E+01
             -0.568347564016773E+01
              0.587154502499247E+01
              0.549126732125517E+01
              0.173901620342523E+01
             -0.105325528711051E+01
              0.311226772431937E+01
             -0.262512945760414E+01
              0.842351200278035E+01
             -0.910314485260642E+01
              0.760158241704950E+01
              0.175613155229775E+01
              0.172119444724787E+01
              0.500734653263314E+01
             -0.166849253255901E+02
              0.914186916442233E+00
             -0.126270921720564E+02
             -0.101120992904198E+02
             -0.100186898547459E+02
             -0.830667122860771E+01
              0.791382694760728E+00
              0.215177650235416E+01
              0.936654425953317E+01
              0.222799428952968E+01
              0.262767104080821E+01
             -0.145274234331505E+02
             -0.511372502065699E+01
              0.665866172575815E+01
              0.159058789655161E+01
              0.750759065192156E+00
             -0.141422012370251E+01
              0.753924463794754E+01
             -0.183526633877011E+02
              0.202084640399868E+01
              0.551129857455909E+01
              0.879887415985210E+01
              0.771147338524548E+01
             -0.114840356059304E+02
              0.119978655840907E+01
              0.409638897067754E+00
              0.911871105557310E+00
             -0.603969985530412E+00
             -0.394314831629546E+01
             -0.548037498643018E+01
              0.291089153081184E+01
              0.126222290977116E+02
             -0.282613632632336E+01
              0.154690522398566E+01
              0.289632076541193E+01
             -0.457661892531392E+01
             -0.424072553761690E+01
             -0.222758036824550E+02
             -0.811733161444074E+01
             -0.874856428896848E+01
             -0.182664868040499E+01
             -0.120060096873783E+02
              0.153154667623339E+02
             -0.566678775625726E+01
             -0.105338745790478E+02
             -0.316921421193383E+02
              0.133064701342974E+02
              0.243934891922228E+01
             -0.212463391180415E+01
             -0.124665449723943E+02
              0.174187460868873E+01
             -0.315447371740744E+01
             -0.688103052414020E+01
              0.184149024336522E+01
              0.623852845921971E+01
              0.170157053116675E+01
             -0.244740394657006E+01
             -0.133778870406891E+01
             -0.896946268917702E-01
              0.504674754150790E+01
             -0.119283796288900E+02
              0.133484740516506E+02
             -0.832295851644051E+01
             -0.515066658774167E+01
             -0.661212672690925E+01
             -0.179046926811150E+02
              0.195674776447215E+01
             -0.875081873662353E+01
             -0.543834147185455E+01
              0.712832798921454E+01
             -0.412901487252388E+01
              0.886151265850543E+00
             -0.178127614490290E+01
             -0.632988273979709E+01
             -0.175543452077981E+00
              0.101783021118035E+02
             -0.110349822307811E+02
              0.169197559467336E+02
             -0.312526285549680E+01
              0.755141108397272E+01
              0.758538823808053E-01
              0.313718348380600E+01
             -0.254976725332131E+01
              0.979832758414329E+01
              0.127364574373939E+02
              0.367570355000423E+01
              0.118455702700125E+02
             -0.834583362785692E+01
             -0.118030281691498E+00
             -0.496634375536199E+01
              0.133582881528733E+02
              0.111028073853215E+02
              0.875551394166291E+01
             -0.288051042069640E+01
             -0.596840160128016E+01
              0.504509633313240E+01
             -0.487367628162405E+01
             -0.276255907283178E+01
             -0.174772561927035E+01
             -0.458010874832465E+01
              0.105632214771544E+02
             -0.674474642373145E+00
              0.762368612080952E+01
              0.191512788740146E+01
              0.401430056650792E+01
             -0.695674864355087E+01
              0.715265396283119E+01
             -0.353365744507622E+01
             -0.252311842886509E+01
             -0.720916843852535E+00
             -0.108968280120110E+02
              0.160809503537069E+02
             -0.598352051596003E+01
             -0.524919777159312E+00
              0.337816354427116E+01
              0.369499830062775E+01
              0.139997805020370E+02
             -0.311945782142504E+01
              0.154122499577153E+02
              0.135026993899770E+02
             -0.194608788288836E+02
              0.235689643832876E+01
             -0.445564402340500E+01
              0.191657257178146E+01
              0.175211236948030E+01
              0.234059132367857E+01
              0.118582829297745E+02
              0.165704115681469E+02
             -0.159389306078330E+02
              0.156855396835815E+02
             -0.174771940386968E+02
             -0.140997416490263E+02
             -0.166960146843889E+01
              0.939772989204641E-01
              0.129751264997550E+02
              0.873067640928238E+01
             -0.474683661898449E+01
             -0.192365274660058E+02
              0.138351427810075E+02
             -0.953413139052388E+01
             -0.485752532442660E+00
             -0.784824020434836E+00
              0.245929607933288E+02
             -0.601373815554548E+01
             -0.208692390445921E+02
              0.586155136913379E+01
             -0.313426670970358E+02
              0.248963262164907E+01
             -0.685580351179453E+01
             -0.348342920231447E+01
             -0.581193533710824E+01
             -0.112110838255239E+02
              0.839518576131411E+01
             -0.648718929969699E+01
             -0.130605879975995E+01
             -0.155098960890381E+02
             -0.152869177125004E+01
             -0.905814300053741E+01
             -0.148335536952784E+02
             -0.259251589331822E+02
              0.270180772807656E+01
             -0.546163820473814E+01
             -0.176213839532518E+01
             -0.213096277926982E+01
             -0.156778932373284E+02
             -0.121489173633139E+02
             -0.106931353428404E+02
             -0.962313522318307E+01
              0.107940581816880E+02
              0.274156811114906E+01
             -0.892989540666510E+01
             -0.374724778865445E+01
             -0.410391905762562E+01
              0.679241683582648E+01
             -0.682805528706530E+01
             -0.353899810080495E+01
             -0.365027463284467E+01
             -0.734033522307699E+01
             -0.686639338605266E+01
              0.795656292995628E+01
             -0.373720687167967E+01
             -0.173294612956717E+02
              0.159787485985625E+02
              0.999162644842960E+01
              0.195092012645144E+01
             -0.141221752079226E+02
             -0.149820035798543E+02
              0.264373706240323E+01
              0.833275979796696E+00
             -0.555439643349567E+01
             -0.100118117524966E+02
              0.796221673460536E+01
             -0.191089514535744E+01
              0.507605913156061E+01
              0.982575021102099E+01
              0.706223259174707E+01
              0.685451581483156E+01
              0.524309803480931E+01
             -0.400696567107916E+01
             -0.196142357470913E+01
             -0.378364357932796E+01
             -0.649039736536990E+01
             -0.971940499733330E+01
             -0.133579681827180E+02
             -0.809460612082280E+01
             -0.165318314709511E+01
             -0.171025958368377E+02
             -0.315030311525589E+00
              0.531128917199324E+01
             -0.121265442205420E+02
              0.436621446230564E+01
              0.307274795863421E+01
             -0.129740982674256E+02
             -0.115362423843786E+02
             -0.275497781758796E+01
              0.485903946703091E+01
             -0.782787570585603E+01
              0.134776075735930E+02
              0.118509925217412E+02
             -0.147835551804147E+02
              0.111148854415086E+02
              0.716211027885383E+01
              0.180340996080636E+01
              0.548228196942853E+01
             -0.815925181575557E+01
             -0.245711683978721E+01
              0.264358881274291E+00
              0.329381985072025E+01
              0.937987653944306E+01
             -0.102914341685773E+02
             -0.222755549460956E+00
              0.421309549066484E+01
             -0.215390866975045E+01
             -0.460684925971275E+01
              0.379724572992594E+01
             -0.580341643921295E+01
             -0.368937462924107E+01
              0.135166336563827E+01
             -0.118573214464485E+02
              0.520055532349907E+00
             -0.616229133095189E+01
             -0.197967902682834E+01
             -0.916896557705670E+00
             -0.115184811029551E+02
              0.101017961808872E+02
             -0.549899661503957E+01
             -0.240878302693879E+02
             -0.168753166125523E+02
              0.796746468788290E+01
             -0.578561446845883E+01
             -0.320155766313138E+01
             -0.643068568500429E+01
             -0.307095268860870E+01
             -0.190963888989904E+02
             -0.314395524968577E+01
             -0.125069886173897E+02
             -0.570561439692314E+01
              0.587976657313436E+01
              0.136650322494758E+02
             -0.328120292516807E+00
             -0.492309906739216E+00
              0.110443194097083E+02
             -0.834795547210817E+01
              0.788838754310801E+01
              0.221615114557759E+01
             -0.741500088947183E+01
             -0.213633665431414E+01
              0.489942376829900E+01
              0.157182246313141E-01
              0.167088284704128E+01
              0.271444335220745E+01
             -0.442581688225074E+01
             -0.481005695245426E+01
             -0.104388718642160E+02
              0.910031350730382E+01
             -0.120905149851209E+02
             -0.917188897515816E+01
              0.240957110150320E+01
             -0.177054666777369E+02
              0.304412092728002E+01
              0.110888122461591E+02
             -0.350096142055648E+00
              0.537774461331630E+00
             -0.386354127518318E+01
             -0.373098184788348E+01
              0.161197660055743E+01
              0.738097192252046E+01
             -0.804101328614620E+01
              0.652147995492038E+01
             -0.235282374703232E+01
             -0.286886274665304E+01
              0.599482446665293E+01
              0.445485895494921E+01
             -0.712254232886625E+00
             -0.503483253536587E+00
              0.522766054177657E+01
              0.557548356356382E+01
             -0.141111882926916E+02
              0.216082370363864E+01
              0.111145270522618E+02
             -0.199482265191999E+02
              0.638891651711954E+01
             -0.239946627938694E+02
             -0.114018879527742E+01
             -0.321662474190209E+01
             -0.231972292756100E+01
             -0.136592392804158E+01
             -0.501455035911492E+01
             -0.183210312213191E-01
              0.407869484098742E+01
             -0.395387562901759E+01
              0.258532023046553E+01
              0.165835296261901E+02
             -0.131684809171275E+02
             -0.535959282275459E+01
              0.653888794931287E+01
              0.505073278811103E+01
              0.700659870141193E+01
              0.205734117180267E+01
              0.679335271728300E+01
             -0.348707889746670E+01
             -0.927811455725656E+01
             -0.810488283656271E+01
             -0.255121582355333E+01
             -0.838704380206266E+00
             -0.814217748482633E+01
             -0.302864669805432E+01
              0.158459191742448E+01
              0.415842983351277E+01
             -0.206611801605266E+01
              0.106660128191361E+02
             -0.866117881315988E+01
             -0.175247940200735E+01
             -0.737146018374812E+00
              0.525562391348951E+01
             -0.909034232608917E+01
             -0.530425622090281E+01
              0.653708164097697E+01
              0.109060348214179E+02
              0.128718153113350E+02
              0.784243522418967E+01
              0.776735162546288E+01
             -0.603540108537082E+01
              0.126148452812799E+02
              0.127530500286722E+02
             -0.217859494302868E+01
              0.881280390066154E+01
              0.782207398335821E+01
             -0.460736436617155E+01
             -0.704584426818130E+00
              0.122079465236615E+02
             -0.596054862667204E+01
             -0.342175664577729E+01
             -0.122295396288175E+02
              0.594756098903110E+01
             -0.967923905149810E+00
              0.308382418854480E+01
              0.231698974046743E+01
             -0.816851399055454E+01
              0.920648998454436E+01
              0.819901986368399E+01
             -0.436485206869783E+01
              0.319754877660099E+01
             -0.108384018191872E+02
             -0.101576673738936E+02
              0.449870975507193E+01
             -0.134042085183974E+02
             -0.518011647430938E+01
              0.280245282853221E+01
              0.157621235331018E+02
             -0.420204720553212E+01
             -0.190001396659667E+01
             -0.190308193629835E+01
              0.227377524019156E+02
              0.316350511420176E+01
             -0.800650452021802E+01
              0.128620308383645E+02
              0.122134942328081E+02
              0.571141199957799E+01
              0.140666238356401E+02
              0.146965030041455E+02
             -0.289750919300418E+01
             -0.626468587820543E+01
             -0.696779668628284E+01
              0.470622528922671E+01
              0.719954156778698E+01
             -0.692235135262905E+00
             -0.399880124231434E+01
             -0.123261723513505E+02
             -0.654297000910976E+01
             -0.884428516887056E+01
              0.549066907644805E+01
              0.274951960449057E+01
              0.113943098811776E+02
              0.536661933102963E+00
             -0.546173283083999E+01
             -0.143250848065101E+01
              0.811708187011952E+01
              0.313669827008539E+01
              0.931506091027558E+01
              0.117653847471637E+02
             -0.330401801925703E+01
             -0.126546042886498E+01
             -0.178828633481081E+02
              0.105687372952938E+02
             -0.203714956789071E+01
              0.971526808216962E+01
             -0.301024592578802E+01
             -0.109914678964083E+02
              0.377693003792953E+01
              0.127760207207179E+02
             -0.480937640939980E+01
              0.138334558625703E+02
             -0.142203187662797E+02
             -0.427244737075884E+01
             -0.150650510417802E+02
              0.522217095664146E+01
              0.328151751224699E+01
             -0.733463674035377E+00
             -0.115395276035342E+02
              0.162134117150877E+02
              0.992405594292222E+01
              0.202444131429945E+01
             -0.731715983019568E+01
              0.452954625848480E+01
             -0.620383707754949E+01
             -0.130351928156486E+01
             -0.350826885663423E+01
              0.425895652579952E+01
             -0.937472734166192E+00
             -0.379964405194885E+01
              0.351946872830652E+01
              0.491907968107766E+01
             -0.161764667824317E+02
              0.408938490687470E+01
              0.129324320326483E+02
              0.834157650072738E+01
             -0.308542076511656E+01
              0.132570794387525E+01
             -0.703289158842929E+01
              0.114460800923219E+02
              0.410513265595850E+01
             -0.183998119051450E+01
             -0.118122882203969E+01
              0.210461168819057E+02
              0.101405289093101E+01
              0.706136680709728E+01
              0.134048602521166E+02
              0.196019586405749E+02
              0.121565692257074E+02
              0.901518037465961E+01
             -0.113513235128355E+02
             -0.834801021985777E+01
              0.654214784527663E+01
             -0.121972720642194E+01
              0.593845887195646E+01
              0.424510870226935E+01
              0.113032775671582E+02
             -0.150816225960536E+02
             -0.954446234747769E+01
             -0.109950545342970E+01
             -0.161124505054341E+02
              0.315254764567728E+01
              0.654845841333697E+01
              0.462901229665114E+01
             -0.471736203628954E+01
              0.516903217992841E+01
              0.283693151538881E+02
              0.415539631757832E+01
              0.275095829770265E+01
             -0.100234632822867E+02
             -0.135226357631043E+02
             -0.327878386291179E+01
              0.541014353227288E+01
             -0.821539413964786E+00
              0.298041401948084E+01
              0.652943502805203E+01
             -0.129821121212162E+02
              0.442732812618235E+01
              0.119591714679741E+02
              0.119781585647795E+02
             -0.116689061745453E+01
             -0.642780112959372E+00
             -0.162151691794305E+01
             -0.971227509048845E+01
             -0.132946454726923E+02
              0.163358462084079E+02
             -0.134107792223339E+01
             -0.120806329273243E+02
             -0.415580487391551E-01
             -0.416753912389821E+01
              0.179796098160352E+02
             -0.415715315804809E+01
             -0.680847818264895E+01
              0.569380442203541E+01
             -0.248774415410477E+01
              0.804138756716324E+01
             -0.200546183606208E+01
              0.203720530197289E+02
              0.930061793253566E+01
             -0.112775799240055E+01
             -0.664568568989139E+01
              0.450105005568159E+01
             -0.108176687356148E+02
             -0.258842002996986E+01
              0.117679667946918E+02
             -0.538245461780741E+01
             -0.917768010121526E+01
             -0.399233243110032E+01
              0.106637962235566E+02
              0.315580262150680E+01
             -0.167679807843853E+02
              0.574986298987012E+01
              0.350060746243508E+01
              0.827099989109051E+00
             -0.979055811546584E+01
             -0.104726091350230E+00
              0.696294867965403E+01
              0.106606255406724E+02
              0.117942403049877E+02
              0.464890026817431E+01
              0.112146643170978E+01
             -0.923037675944943E+01
             -0.932820511554996E+01
             -0.154515203590237E+02
             -0.623391520601615E+00
              0.600324133908475E+01
             -0.475721670067394E+00
              0.109574520743115E+02
             -0.608110440184822E+01
              0.395511909108045E+01
             -0.147028020956631E+01
             -0.528964519516285E+01
              0.109969826658491E+02
              0.151985644438292E+01
              0.113964226824511E+02
              0.722698528791895E+00
              0.537434031336254E+01
             -0.380161528416325E+01
              0.121791395819521E+02
             -0.120626862785073E+01
             -0.668556403514798E+00
             -0.154579975219811E+02
             -0.238709835853765E+01
              0.144034870738706E+02
              0.139009087400225E+02
              0.454111752571063E+01
             -0.265245462430056E+01
             -0.860300432178320E-01
             -0.298354966787119E+01
              0.230868559546309E+00
              0.170692981155436E+02
             -0.875975822940802E-01
             -0.397944457841976E+01
             -0.222363170684753E+02
             -0.117822075802402E+02
             -0.707418926817734E+01
             -0.137090016973281E+02
             -0.106390205417755E+02
             -0.140647833358405E+02
             -0.876539125075986E+01
             -0.829396349860866E+01
             -0.879041156168028E+01
              0.914196210392817E+01
             -0.613292579472665E+01
             -0.212780668769810E+02
              0.817384734855192E+01
             -0.505936592530404E+01
             -0.159421610637411E+02
              0.190816596226411E+02
             -0.409829628215660E+01
              0.465409118181597E+01
              0.881834131009347E+01
             -0.127394690441653E+01
              0.452216154587128E+01
              0.299137450743189E+00
             -0.640364720673432E-01
             -0.212273742712301E+01
             -0.132766976011187E+02
              0.223005016561995E+01
             -0.260111772575054E+02
              0.112872048662934E+02
             -0.842424177976494E+01
             -0.264736460442117E+01
             -0.336834349716253E+01
              0.129108709191281E+01
             -0.440499728146075E+01
              0.647974035237881E+01
             -0.104546973368332E+02
              0.771776706064533E+01
              0.641515790099439E+01
              0.422696087040057E+01
              0.118808210741724E+01
              0.374919619010964E+01
              0.991689823238502E+00
              0.676915401304340E+01
             -0.168320375615581E+01
             -0.105421958791349E+02
              0.173841439251177E+01
             -0.385967298895959E+01
             -0.148770028043423E+00
              0.873758887270640E+01
             -0.162002394331307E+02
             -0.661409822799911E+00
              0.424394657975995E-01
              0.169966538490476E+01
              0.664246858637531E+01
             -0.262630710990407E+01
              0.167661551693045E+02
              0.101032501238930E+02
             -0.401528135424846E+01
             -0.287489561324573E+01
              0.152184535298460E+00
              0.156354049822938E+02
             -0.116010995452360E+02
             -0.207192994774508E+02
              0.537749376425487E+01
             -0.225930051471255E+01
             -0.167007399348824E+01
              0.310303126700896E+01
              0.156703357555275E+02
              0.937670442039503E+01
             -0.347034940620989E+01
             -0.953273163597233E+01
             -0.942938641362442E+00
              0.604394178268148E+01
             -0.213152292144900E+01
             -0.146059823610706E+02
             -0.845032371146957E-01
             -0.173177597704821E+02
             -0.921318570871610E+01
              0.148409975240136E+02
             -0.930893719542419E+01
             -0.125160435760228E+02
             -0.101635138747201E+02
             -0.667934568745830E+01
              0.569621969208585E+01
              0.158686804443193E+02
             -0.195078870759147E+00
              0.559151928774249E+01
             -0.293157711455254E+01
             -0.133816540156459E+02
              0.921613696300732E+01
             -0.850292986507783E+01
              0.657743893021869E+01
              0.783173704990663E+01
             -0.135294458336296E+01
              0.879573950117764E+01
              0.896000796874164E+01
              0.193535137500273E+02
             -0.356155095837730E+01
             -0.797794388532622E+01
             -0.125339074545388E+02
             -0.254859974835080E+01
             -0.406381808017801E+01
              0.207258915792408E+02
             -0.841659541693341E+01
              0.191046678911413E+01
              0.214280633312289E+01
             -0.546026876141910E+01
             -0.148378835201202E+02
             -0.118827540615859E+01
              0.189481192257882E+02
              0.137677441655541E+01
              0.170492456386950E+01
             -0.944079531155568E+01
             -0.119260973813365E+02
             -0.102245692303173E+01
              0.984741865055855E+01
             -0.408817526120181E+01
              0.212797825486371E+02
             -0.710710112541197E+01
              0.294089313671644E+01
             -0.543312019874648E+01
             -0.136895151211811E+02
              0.511553824954490E+00
             -0.100077332480400E+02
             -0.147825699867476E+02
              0.759169543516776E+00
              0.593907969984379E+00
              0.972097453342379E+01
              0.377747951723540E+01
             -0.622584164442967E+01
              0.482117735867681E+01
             -0.148437677967742E+02
             -0.109529067882464E+02
              0.179612195636567E+02
              0.346789151800544E+01
             -0.361900152472975E+01
             -0.684309666708591E+01
             -0.234677505963560E+00
             -0.106891728030669E+01
              0.151747136646755E+02
              0.760673891469140E+01
             -0.360531729149946E+01
             -0.253675524770732E+01
             -0.842151732375338E+01
             -0.467467286544287E+01
             -0.137313277041598E+02
              0.880909835996707E+01
              0.980059946974841E+00
              0.299881868954513E+01
              0.248107248945339E+01
             -0.395713645580671E+00
             -0.311750706397971E+01
             -0.152857921894204E+01
             -0.196987898209020E+02
             -0.412589961804824E+01
             -0.792838454039213E+00
             -0.185251056008879E+01
              0.120385389696700E+02
              0.115877181754595E+02
              0.301302612177960E+01
             -0.187650399819763E+02
              0.130651890643370E+02
             -0.429657599059017E+01
             -0.751306460981199E+01
             -0.170146220453804E+02
             -0.758131699089876E+01
              0.102736505868446E+02
              0.428064993723837E+01
              0.121481857861316E+01
              0.552854070935696E+01
             -0.108721165090332E+02
             -0.815637655088378E+01
              0.103165982515092E+02
              0.778548800723561E+01
              0.106347888608943E+02
             -0.136030339244307E+01
              0.104217753579056E+01
              0.109105678732771E+02
              0.194350928069436E+02
             -0.602870366160682E+01
              0.638241324990318E+01
             -0.974445352137607E+00
             -0.793363826373117E+01
             -0.594736090408158E+01
             -0.498054349857453E+01
             -0.264466139308048E+01
             -0.107255402228104E+02
             -0.502018250592978E+01
             -0.272997334598739E+02
              0.648205192438348E+01
              0.421604629040469E+01
             -0.341500911534787E+00
             -0.794461638791293E+01
             -0.486296891975380E+01
             -0.100349825719656E+02
              0.255147352143409E+01
              0.160872843706584E+02
             -0.416284027378188E+01
             -0.318331333846866E+01
              0.433162598730488E+01
             -0.876716179602796E+01
              0.175879365663972E+02
              0.356201718571675E+01
              0.434448773664018E+01
              0.105024777706180E+02
              0.122006261282139E+01
              0.110760174988554E+02
              0.262242009896103E+01
             -0.251973336070338E+01
              0.220330356312391E+01
              0.749796811911182E+00
              0.148356358862438E+02
              0.157851531007471E+01
              0.217184046196043E+01
             -0.161006805087264E+01
              0.209745672239173E+01
             -0.181524693841472E+02
             -0.716864039038697E+01
             -0.866518880739594E+01
              0.107959721973000E+02
             -0.564926765321727E+01
             -0.132017740562635E+02
              0.110564265255922E+02
             -0.274449046646622E+01
              0.902497407512226E+01
             -0.180503303001191E+02
              0.548162966038498E+01
              0.211421001176372E+01
              0.886834874827343E+00
             -0.136882664491650E+01
             -0.137969014550731E+01
              0.920633477102480E+01
              0.299012437262093E+00
             -0.911966299808924E+01
             -0.298994212948668E+01
              0.589181619218432E+01
             -0.230383824786053E+02
             -0.187980228692173E+02
              0.695891900366718E+00
              0.197933789521005E+01
             -0.759646173242758E+01
             -0.900559275395082E+00
              0.221246691227731E+02
              0.743259711398636E+01
             -0.112452748298206E+02
              0.185056632160327E+01
             -0.201181347336239E+01
              0.157527664623158E+01
             -0.611861871712416E+01
              0.311506421339066E+01
              0.550714904490619E+01
             -0.129946665427998E+01
              0.214994493323792E+02
             -0.252908776467565E+01
             -0.643433406011408E+01
              0.316821289743115E+01
              0.865759028570724E+01
             -0.719287152782437E+01
             -0.751474112830262E+00
              0.184834124230135E+02
             -0.832718640513946E+00
              0.114296236375719E+02
              0.281497806970978E+01
             -0.251911239212712E+01
             -0.562983254978472E+01
              0.117272837422153E+02
             -0.106864975369918E+02
             -0.676024401100285E+00
             -0.304960953969892E+01
             -0.843967559528826E+01
              0.307106090926592E+01
              0.374147164737959E+01
              0.222426357793620E+01
             -0.286113309118917E+00
             -0.744856182954864E+01
              0.468832531704629E+01
             -0.801988515759653E+00
             -0.543130819623633E+01
             -0.454074763376811E+01
              0.497486112183488E+01
             -0.784847617951300E+00
             -0.692244191712845E+01
             -0.202512860793161E+02
              0.129472925325814E+01
              0.525110950503085E+01
             -0.776501865263555E+01
             -0.397776219376848E+01
              0.157048442168943E+02
              0.755437879368785E+00
              0.619740685631470E+01
              0.704932341852562E+00
              0.645379904219485E+01
              0.782347983418632E+00
             -0.775252949281449E+01
              0.692802395597269E+00
              0.200635632746071E+01
              0.490438564078913E+01
              0.165138771854440E+02
              0.988896415084956E+01
              0.136428044611918E-01
              0.236712062344908E+01
              0.117922571471636E+02
              0.481502873510772E+01
             -0.152097694240838E+02
             -0.529004387919069E+01
              0.319272596010649E+01
              0.142996057129606E+01
              0.544430722692196E+01
             -0.108226376623211E+02
              0.264712721073989E+01
              0.686640043144737E+01
              0.100720452282613E+02
             -0.901118986366730E+01
             -0.176161111807939E+01
             -0.528485627853200E+00
             -0.283309829766533E+01
             -0.762494310282307E+01
             -0.439727858017554E+01
              0.449359445413807E+00
              0.132954666555324E+01
              0.805686994804959E+01
             -0.640130613046763E+01
              0.158422190889946E+02
              0.715977514802772E+01
              0.404928059495632E+01
              0.600487567263089E+01
              0.678932117563852E+01
              0.560236011810456E+01
              0.107224052677053E+02
             -0.863520429887085E+01
              0.122108693584593E+02
             -0.212718222249739E+02
              0.622030815980914E+01
             -0.211809348500629E+02
              0.167296011877153E+02
              0.138247198976594E+02
             -0.235456554086923E+01
             -0.998790644408643E+01
             -0.803404801473496E+01
             -0.123175734457377E+02
             -0.121560918391093E+02
              0.106561989711541E+02
              0.834855870757499E+01
              0.495142526012648E+01
              0.744190370870955E+01
              0.725540886787358E+01
             -0.752731448403857E+01
             -0.393668518947213E+01
              0.111809705059821E+02
             -0.191670818927152E+01
              0.997230062515315E+01
              0.138173640569506E+02
             -0.389565103354949E+00
             -0.138625374755655E+02
             -0.957305574327791E+00
              0.222445226269740E+00
             -0.185792696361064E+01
              0.480847877683175E+00
             -0.131475302230845E+02
             -0.482939642237235E+01
              0.942497458565873E+00
              0.850410385380997E+00
              0.918525617744824E+01
             -0.750765212907743E+01
              0.134458821985824E+02
             -0.822260945196154E+01
              0.365579041519692E+01
              0.727647163245800E+01
 
 BEEF-vdW xc energy contributions
           1 :   -156.275628824980     
           2 :    145.394778955706     
           3 :   -125.898861537206     
           4 :    101.529855192353     
           5 :   -76.3664525348212     
           6 :    53.7647511792876     
           7 :   -35.6855347740805     
           8 :    22.5484108974175     
           9 :   -13.5776695371566     
          10 :    7.43632518096697     
          11 :   -2.87087671777607     
          12 :  -0.872482581433530     
          13 :    3.96221101781452     
          14 :   -6.17932279802938     
          15 :    7.24482979550311     
          16 :   -7.09777287022774     
          17 :    6.00079959511157     
          18 :   -4.45819249308272     
          19 :    3.01936504282546     
          20 :   -2.07844464661900     
          21 :    1.76048912202424     
          22 :   -1.93191662601112     
          23 :    2.31195903226833     
          24 :   -2.62162707606407     
          25 :    2.69896302820723     
          26 :   -2.53701683443961     
          27 :    2.24374999210573     
          28 :   -1.96007013943398     
          29 :    1.78336477675202     
          30 :   -1.73084116338592     
          31 :   -12.7970334800653     
          32 :   -9.44661028956153     

     Forces acting on atoms (Ry/au):


     negative rho (up, down):  5.462E-01 0.000E+00
     atom    1 type  1   force =     0.00000000    0.00000000    0.00536480
     atom    2 type  1   force =     0.00000000    0.00000000    0.00000000
     atom    3 type  1   force =     0.00000000    0.00000000   -0.00536480

     Total force =     0.007587     Total SCF correction =     0.000441
 !ASE

     Writing output data file calc.save
 
     init_run     :      0.72s CPU     18.61s WALL (       1 calls)
     electrons    :     16.95s CPU     23.04s WALL (       1 calls)
     forces       :      0.27s CPU      0.32s WALL (       1 calls)

     Called by init_run:
     wfcinit      :      0.08s CPU      0.09s WALL (       1 calls)
     potinit      :      0.27s CPU      0.35s WALL (       1 calls)

     Called by electrons:
     c_bands      :      7.67s CPU      7.71s WALL (      12 calls)
     sum_band     :      3.86s CPU      3.89s WALL (      12 calls)
     v_of_rho     :      1.45s CPU      1.59s WALL (      13 calls)
     newd         :      1.03s CPU      1.07s WALL (      13 calls)
     mix_rho      :      0.03s CPU      0.05s WALL (      12 calls)
     vdW_energy   :      0.77s CPU      0.91s WALL (      48 calls)
     vdW_ffts     :      1.69s CPU      1.69s WALL (      96 calls)
     vdW_v        :      0.63s CPU      0.66s WALL (      48 calls)

     Called by c_bands:
     init_us_2    :      0.01s CPU      0.02s WALL (     130 calls)
     cegterg      :      2.22s CPU      2.27s WALL (      60 calls)

     Called by *egterg:
     h_psi        :      1.21s CPU      1.24s WALL (     261 calls)
     s_psi        :      0.04s CPU      0.04s WALL (     261 calls)
     g_psi        :      0.01s CPU      0.01s WALL (     196 calls)
     cdiaghg      :      0.66s CPU      0.66s WALL (     256 calls)

     Called by h_psi:
     add_vuspsi   :      0.05s CPU      0.05s WALL (     261 calls)

     General routines
     calbec       :      0.26s CPU      0.26s WALL (     326 calls)
     fft          :      2.53s CPU      2.58s WALL (    2853 calls)
     ffts         :      0.00s CPU      0.00s WALL (      25 calls)
     fftw         :      3.95s CPU      3.98s WALL (   12058 calls)
     interpolate  :      0.03s CPU      0.03s WALL (      25 calls)
     davcio       :      0.00s CPU      0.00s WALL (       5 calls)
 
     Parallel routines
     fft_scatter  :      4.20s CPU      4.25s WALL (   14936 calls)
 
     PWSCF        :  0m21.12s CPU     1m16.11s WALL

 
   This run was terminated on:  10: 2:52  27Feb2017            

=------------------------------------------------------------------------------=
   JOB DONE.
=------------------------------------------------------------------------------=
